ITEM: TIMESTEP
0
ITEM: NUMBER OF ATOMS
1000
ITEM: BOX BOUNDS xy xz yz
-195.722	391.443	195.722
-169.5	169.5	0
-106	106	0
ITEM: ATOMS index type x y z
     0	1	 315.112	  186.45	   33.92
     1	1	 317.069	   192.1	  126.14
     2	1	 407.101	  115.26	   16.96
     3	1	 217.251	   73.45	    1.06
     4	1	 107.647	   53.11	   56.18
     5	1	 68.5026	  107.35	  109.18
     6	1	 293.583	   29.38	   18.02
     7	1	 326.855	  134.47	   164.3
     8	1	 219.208	     226	   132.5
     9	1	 250.524	  250.86	   69.96
    10	1	 389.486	   59.89	   43.46
    11	1	 227.037	  250.86	  167.48
    12	1	 113.519	  103.96	    47.7
    13	1	  176.15	       0	    4.24
    14	1	 391.443	   97.18	  140.98
    15	1	 426.673	   169.5	  197.16
    16	1	 422.759	  219.22	   85.86
    17	1	 238.781	  332.22	    42.4
    18	1	 121.347	       0	   33.92
    19	1	 234.866	   203.4	  163.24
    20	1	 352.299	  155.94	   127.2
    21	1	 518.663	  256.51	   51.94
    22	1	 137.005	  103.96	  147.34
    23	1	 446.246	  108.48	    84.8
    24	1	 121.347	  185.32	   24.38
    25	1	 264.224	  322.05	    42.4
    26	1	 185.936	  118.65	   46.64
    27	1	 303.369	  308.49	    6.36
    28	1	 115.476	  114.13	  147.34
    29	1	 528.449	  320.92	  102.82
    30	1	 262.267	  284.76	      53
    31	1	 320.984	  300.58	  202.46
    32	1	 385.572	  193.23	    84.8
    33	1	  309.24	  277.98	       0
    34	1	 275.968	   87.01	   30.74
    35	1	 223.123	   192.1	    7.42
    36	1	 152.663	  137.86	   13.78
    37	1	 162.449	  159.33	  188.68
    38	1	 508.877	  311.88	     159
    39	1	 526.491	  256.51	   56.18
    40	1	 315.112	  261.03	   91.16
    41	1	 412.973	  145.77	  125.08
    42	1	 412.973	  125.43	    4.24
    43	1	 465.818	  212.44	  124.02
    44	1	  295.54	   46.33	   153.7
    45	1	 459.946	  206.79	      53
    46	1	 148.749	  131.08	  149.46
    47	1	 411.016	  198.88	   92.22
    48	1	 430.588	  253.12	  181.26
    49	1	 195.722	  219.22	  104.94
    50	1	  260.31	  263.29	  162.18
    51	1	 234.866	  311.88	  192.92
    52	1	 324.898	  137.86	     5.3
    53	1	 467.775	  322.05	  188.68
    54	1	 174.192	   77.97	  133.56
    55	1	 422.759	   203.4	  146.28
    56	1	 387.529	  266.68	  208.82
    57	1	 360.128	   101.7	   201.4
    58	1	 456.032	  331.09	     5.3
    59	1	 275.968	   12.43	  177.02
    60	1	 313.155	    6.78	   16.96
    61	1	 82.2031	   88.14	    8.48
    62	1	 446.246	  318.66	    2.12
    63	1	 528.449	   271.2	   46.64
    64	1	 291.625	  206.79	    84.8
    65	1	 381.657	  181.93	  191.86
    66	1	 50.8877	   54.24	    2.12
    67	1	 283.797	   37.29	  154.76
    68	1	 362.085	   16.95	  173.84
    69	1	 219.208	  108.48	    10.6
    70	1	 205.508	  148.03	    58.3
    71	1	 442.331	  318.66	   16.96
    72	1	 240.738	  172.89	   33.92
    73	1	 227.037	   29.38	   66.78
    74	1	 172.235	   169.5	   33.92
    75	1	 178.107	   59.89	   77.38
    76	1	 383.615	   81.36	  118.72
    77	1	  309.24	    67.8	   29.68
    78	1	 135.048	  181.93	  189.74
    79	1	  309.24	  219.22	  109.18
    80	1	 465.818	   237.3	   82.68
    81	1	 526.491	  256.51	   85.86
    82	1	 407.101	  110.74	    1.06
    83	1	 236.823	  193.23	  203.52
    84	1	 125.262	  115.26	   38.16
    85	1	 248.567	   53.11	  119.78
    86	1	  176.15	  230.52	   50.88
    87	1	   379.7	   54.24	    8.48
    88	1	 434.502	  307.36	  202.46
    89	1	 377.743	  179.67	   201.4
    90	1	 326.855	   44.07	   27.56
    91	1	 526.491	  247.47	  118.72
    92	1	 68.5026	   57.63	   23.32
    93	1	 416.887	  335.61	   201.4
    94	1	  260.31	  281.37	   29.68
    95	1	 360.128	    6.78	   44.52
    96	1	 334.684	  166.11	   180.2
    97	1	 250.524	  110.74	  136.74
    98	1	 475.604	  242.95	   28.62
    99	1	 412.973	  179.67	  156.88
   100	1	 395.358	  219.22	   45.58
   101	1	 461.903	  198.88	  204.58
   102	1	 279.882	   44.07	  167.48
   103	1	 332.727	  253.12	    90.1
   104	1	 293.583	   15.82	  187.62
   105	1	 544.106	  291.54	  203.52
   106	1	 95.9037	   30.51	   29.68
   107	1	 185.936	  315.27	   40.28
   108	1	 461.903	  198.88	  147.34
   109	1	 448.203	  172.89	   27.56
   110	1	 64.5882	   87.01	  136.74
   111	1	 297.497	  257.64	   76.32
   112	1	 193.765	  179.67	   29.68
   113	1	 297.497	   88.14	   89.04
   114	1	 64.5882	   73.45	  189.74
   115	1	 84.1603	  111.87	   44.52
   116	1	 311.198	  297.19	  200.34
   117	1	 342.513	   53.11	  193.98
   118	1	 54.8021	    9.04	  168.54
   119	1	 272.053	  186.45	   127.2
   120	1	 313.155	   88.14	   180.2
   121	1	  330.77	  120.91	  136.74
   122	1	 387.529	  284.76	   40.28
   123	1	 74.3743	   88.14	   65.72
   124	1	 426.673	   88.14	  186.56
   125	1	 381.657	  141.25	  198.22
   126	1	 358.171	  152.55	  131.44
   127	1	 381.657	  206.79	   91.16
   128	1	 201.593	   84.75	  103.88
   129	1	 416.887	  209.05	   81.62
   130	1	 66.5454	   49.72	    90.1
   131	1	 395.358	  257.64	   116.6
   132	1	 430.588	   192.1	   30.74
   133	1	 526.491	  242.95	  210.94
   134	1	 33.2727	   12.43	  187.62
   135	1	 209.422	  166.11	      53
   136	1	 342.513	   73.45	  210.94
   137	1	 324.898	  277.98	   89.04
   138	1	 371.871	  219.22	   75.26
   139	1	 291.625	  290.41	  115.54
   140	1	 279.882	  256.51	  202.46
   141	1	 315.112	  317.53	   66.78
   142	1	 91.9892	  118.65	    4.24
   143	1	 303.369	  227.13	   169.6
   144	1	 395.358	  334.48	  140.98
   145	1	 397.315	  213.57	   89.04
   146	1	 387.529	    2.26	   18.02
   147	1	 354.256	  215.83	    79.5
   148	1	 342.513	  188.71	   121.9
   149	1	 262.267	  162.72	   69.96
   150	1	 107.647	  175.15	    47.7
   151	1	  119.39	  186.45	    4.24
   152	1	 234.866	  300.58	  147.34
   153	1	  295.54	  120.91	   22.26
   154	1	 121.347	   124.3	    37.1
   155	1	 158.535	  220.35	  203.52
   156	1	 291.625	   84.75	  129.32
   157	1	 223.123	  164.98	   64.66
   158	1	 228.994	  213.57	   127.2
   159	1	 97.8609	  142.38	   201.4
   160	1	 121.347	  131.08	   96.46
   161	1	 324.898	  162.72	  209.88
   162	1	 240.738	  249.73	   111.3
   163	1	 293.583	  273.46	    79.5
   164	1	   379.7	   94.92	  207.76
   165	1	 78.2887	   101.7	  122.96
   166	1	 412.973	   80.23	    68.9
   167	1	 409.058	  159.33	   91.16
   168	1	 409.058	  175.15	   153.7
   169	1	 465.818	  131.08	    15.9
   170	1	 205.508	  310.75	   56.18
   171	1	 471.689	  148.03	   206.7
   172	1	 238.781	   169.5	    4.24
   173	1	 197.679	  288.15	   89.04
   174	1	 444.288	  202.27	  202.46
   175	1	 369.914	  297.19	  183.38
   176	1	 70.4598	    90.4	  136.74
   177	1	 158.535	   66.67	  170.66
   178	1	 217.251	  181.93	   94.34
   179	1	 403.187	     226	  145.22
   180	1	 262.267	  185.32	  102.82
   181	1	 299.454	   44.07	   57.24
   182	1	 315.112	  114.13	   64.66
   183	1	 9.78609	   10.17	    31.8
   184	1	 201.593	  188.71	    26.5
   185	1	 230.952	  142.38	   69.96
   186	1	 397.315	  107.35	  204.58
   187	1	 254.438	  216.96	    84.8
   188	1	 454.074	  264.42	  207.76
   189	1	 254.438	  325.44	  197.16
   190	1	 407.101	   36.16	  145.22
   191	1	 82.2031	  131.08	  162.18
   192	1	 95.9037	   -1.13	   39.22
   193	1	 571.507	  334.48	  179.14
   194	1	 70.4598	   54.24	   14.84
   195	1	 74.3743	   83.62	  124.02
   196	1	 348.385	    90.4	  155.82
   197	1	 444.288	  317.53	   87.98
   198	1	 457.989	  183.06	  154.76
   199	1	 252.481	   46.33	   111.3
   200	1	 172.235	   293.8	   54.06
   201	1	 223.123	  122.04	  175.96
   202	1	 264.224	  107.35	   77.38
   203	1	 377.743	  100.57	  181.26
   204	1	 428.631	  290.41	  208.82
   205	1	 444.288	  152.55	       0
   206	1	 326.855	  254.25	  142.04
   207	1	 70.4598	  110.74	  210.94
   208	1	 389.486	  188.71	  140.98
   209	1	  119.39	   91.53	   55.12
   210	1	 422.759	   327.7	  193.98
   211	1	 164.406	  212.44	   153.7
   212	1	  401.23	   39.55	  151.58
   213	1	 256.395	   37.29	   93.28
   214	1	 129.176	   13.56	   55.12
   215	1	 109.604	   135.6	  131.44
   216	1	 219.208	  176.28	  205.64
   217	1	 352.299	  311.88	  135.68
   218	1	 74.3743	    90.4	    47.7
   219	1	 397.315	  233.91	  186.56
   220	1	 244.652	  229.39	   87.98
   221	1	 338.599	  188.71	   206.7
   222	1	 203.551	   97.18	  208.82
   223	1	 123.305	  166.11	  114.48
   224	1	 315.112	  213.57	   91.16
   225	1	 217.251	  254.25	  110.24
   226	1	 301.411	   27.12	    63.6
   227	1	 142.877	  168.37	   64.66
   228	1	 285.754	  115.26	   69.96
   229	1	 221.166	  229.39	  183.38
   230	1	 481.475	  244.08	    10.6
   231	1	 180.064	  284.76	    84.8
   232	1	 170.278	  175.15	  179.14
   233	1	 319.026	  161.59	   56.18
   234	1	 248.567	  193.23	  209.88
   235	1	 375.786	   94.92	   91.16
   236	1	 461.903	  151.42	   49.82
   237	1	 158.535	  236.17	   60.42
   238	1	 144.834	  210.18	   29.68
   239	1	 481.475	  164.98	  183.38
   240	1	 340.556	   237.3	  125.08
   241	1	  189.85	   66.67	    79.5
   242	1	 307.283	  222.61	   98.58
   243	1	  274.01	  205.66	  179.14
   244	1	 144.834	   158.2	   143.1
   245	1	 469.732	  223.74	  192.92
   246	1	 405.144	  331.09	  115.54
   247	1	 356.214	  298.32	   65.72
   248	1	 187.893	  280.24	  191.86
   249	1	 23.4866	   13.56	  205.64
   250	1	  176.15	   40.68	    74.2
   251	1	 387.529	  257.64	       0
   252	1	 131.134	  118.65	   169.6
   253	1	 373.829	  154.81	   11.66
   254	1	 477.561	  320.92	   60.42
   255	1	  176.15	    22.6	   66.78
   256	1	 166.363	  236.17	    9.54
   257	1	 174.192	   10.17	   50.88
   258	1	 178.107	  100.57	  179.14
   259	1	 107.647	   39.55	   75.26
   260	1	 152.663	   15.82	  170.66
   261	1	 473.647	  189.84	  182.32
   262	1	 227.037	   74.58	  103.88
   263	1	 84.1603	  125.43	    2.12
   264	1	 475.604	  288.15	  110.24
   265	1	  401.23	  213.57	  171.72
   266	1	 307.283	   93.79	  151.58
   267	1	  119.39	    5.65	   24.38
   268	1	 477.561	  253.12	    90.1
   269	1	 287.711	  134.47	   51.94
   270	1	 138.962	  166.11	   80.56
   271	1	 340.556	  257.64	   36.04
   272	1	 246.609	  284.76	  167.48
   273	1	 465.818	  311.88	   44.52
   274	1	 242.695	  332.22	  139.92
   275	1	  225.08	  290.41	     5.3
   276	1	 125.262	   76.84	   11.66
   277	1	 82.2031	   49.72	  138.86
   278	1	 86.1176	   101.7	   14.84
   279	1	 162.449	   30.51	  144.16
   280	1	 336.641	  110.74	  102.82
   281	1	 526.491	  247.47	   23.32
   282	1	 454.074	  244.08	   67.84
   283	1	 174.192	  267.81	   82.68
   284	1	 183.978	   63.28	   71.02
   285	1	 301.411	  122.04	   33.92
   286	1	 489.304	  291.54	      53
   287	1	 407.101	  246.34	   30.74
   288	1	 440.374	  107.35	   206.7
   289	1	 393.401	  261.03	  144.16
   290	1	 93.9464	    67.8	  146.28
   291	1	 459.946	  120.91	  170.66
   292	1	 272.053	  188.71	   51.94
   293	1	 248.567	  294.93	   50.88
   294	1	  105.69	   158.2	    3.18
   295	1	 185.936	  195.49	   66.78
   296	1	 299.454	  127.69	  160.06
   297	1	 191.807	  291.54	   23.32
   298	1	 174.192	  301.71	   69.96
   299	1	 497.133	  318.66	  154.76
   300	1	 430.588	  300.58	    58.3
   301	1	 422.759	  219.22	  134.62
   302	1	 299.454	  270.07	   174.9
   303	1	  189.85	   80.23	   49.82
   304	1	 35.2299	   49.72	   24.38
   305	1	 320.984	  320.92	   94.34
   306	1	  344.47	  250.86	   80.56
   307	1	 203.551	  205.66	  151.58
   308	1	  225.08	  335.61	   99.64
   309	1	 338.599	   23.73	  129.32
   310	1	 138.962	   64.41	  114.48
   311	1	 387.529	  137.86	   64.66
   312	1	 219.208	  178.54	  145.22
   313	1	 93.9464	  103.96	    9.54
   314	1	 303.369	   16.95	   116.6
   315	1	  176.15	  250.86	  101.76
   316	1	 459.946	  294.93	   93.28
   317	1	 307.283	  283.63	   174.9
   318	1	 215.294	   94.92	  125.08
   319	1	 504.962	  230.52	   89.04
   320	1	 39.1443	   29.38	   71.02
   321	1	 399.272	  198.88	   13.78
   322	1	 223.123	   36.16	   71.02
   323	1	 389.486	  270.07	  191.86
   324	1	 199.636	  257.64	  199.28
   325	1	 489.304	  257.64	  182.32
   326	1	 346.427	  315.27	   14.84
   327	1	 456.032	  240.69	       0
   328	1	 199.636	  314.14	    9.54
   329	1	 287.711	   87.01	   206.7
   330	1	 411.016	   47.46	   80.56
   331	1	 475.604	  254.25	   55.12
   332	1	 219.208	  320.92	  113.42
   333	1	 209.422	  297.19	  107.06
   334	1	 313.155	   271.2	  114.48
   335	1	 446.246	   327.7	   73.14
   336	1	  309.24	   97.18	    47.7
   337	1	 503.005	  222.61	  191.86
   338	1	 381.657	  206.79	   93.28
   339	1	 103.733	   87.01	   92.22
   340	1	 403.187	   74.58	   89.04
   341	1	 551.935	  284.76	   89.04
   342	1	 393.401	  215.83	  179.14
   343	1	 242.695	  212.44	   196.1
   344	1	 338.599	   32.77	   56.18
   345	1	 160.492	   20.34	    6.36
   346	1	 367.957	       0	   55.12
   347	1	 209.422	   19.21	  191.86
   348	1	 457.989	  223.74	   40.28
   349	1	 287.711	  175.15	   92.22
   350	1	 403.187	  128.82	   65.72
   351	1	 275.968	  200.01	  161.12
   352	1	 397.315	  181.93	  145.22
   353	1	 311.198	   10.17	  197.16
   354	1	 250.524	    90.4	   56.18
   355	1	 183.978	   63.28	   66.78
   356	1	 219.208	   293.8	   100.7
   357	1	       0	       0	  188.68
   358	1	 371.871	  162.72	   36.04
   359	1	  309.24	   36.16	  177.02
   360	1	 150.706	    5.65	  183.38
   361	1	 272.053	  186.45	  207.76
   362	1	 322.941	   53.11	  126.14
   363	1	 230.952	   36.16	   196.1
   364	1	 373.829	   57.63	    4.24
   365	1	 397.315	   64.41	   116.6
   366	1	 362.085	  247.47	   137.8
   367	1	 381.657	   87.01	   132.5
   368	1	 313.155	   76.84	   20.14
   369	1	 338.599	  134.47	  119.78
   370	1	 307.283	    3.39	  120.84
   371	1	 358.171	   77.97	  112.36
   372	1	 411.016	   192.1	  107.06
   373	1	 131.134	   12.43	  147.34
   374	1	 299.454	  100.57	   66.78
   375	1	 199.636	   94.92	  178.08
   376	1	 279.882	  322.05	   48.76
   377	1	  401.23	   98.31	  150.52
   378	1	 440.374	  213.57	   25.44
   379	1	 542.149	  308.49	  150.52
   380	1	 514.748	  242.95	   51.94
   381	1	  401.23	  215.83	   71.02
   382	1	 352.299	  162.72	  161.12
   383	1	 121.347	   158.2	  183.38
   384	1	 473.647	  210.18	   89.04
   385	1	  27.401	   36.16	   24.38
   386	1	 50.8877	   20.34	    42.4
   387	1	 97.8609	   74.58	  103.88
   388	1	 422.759	  137.86	   153.7
   389	1	 285.754	   124.3	   85.86
   390	1	     366	  193.23	   55.12
   391	1	 107.647	  127.69	  210.94
   392	1	 135.048	  215.83	  134.62
   393	1	 313.155	   61.02	   86.92
   394	1	 193.765	   50.85	  122.96
   395	1	 201.593	  107.35	   13.78
   396	1	 334.684	  168.37	    68.9
   397	1	  555.85	   293.8	  104.94
   398	1	 199.636	  151.42	  204.58
   399	1	 391.443	     226	   98.58
   400	1	 84.1603	  118.65	    8.48
   401	1	 252.481	  274.59	  110.24
   402	1	 281.839	    56.5	  140.98
   403	1	 115.476	   46.33	  115.54
   404	1	  45.016	   19.21	   54.06
   405	1	  274.01	  128.82	     159
   406	1	 97.8609	   88.14	  184.44
   407	1	 305.326	   29.38	  107.06
   408	1	 356.214	  266.68	   13.78
   409	1	 217.251	  138.99	   97.52
   410	1	 223.123	  332.22	   29.68
   411	1	 91.9892	   -1.13	   22.26
   412	1	 101.775	  144.64	   94.34
   413	1	 336.641	  162.72	  207.76
   414	1	 297.497	   237.3	  150.52
   415	1	  274.01	  176.28	   76.32
   416	1	 399.272	  108.48	   23.32
   417	1	 426.673	  311.88	   72.08
   418	1	 111.561	   73.45	    26.5
   419	1	 15.6577	       0	  186.56
   420	1	 160.492	   29.38	    1.06
   421	1	 187.893	  178.54	  189.74
   422	1	 234.866	  277.98	   89.04
   423	1	 440.374	  186.45	   55.12
   424	1	 348.385	   237.3	  142.04
   425	1	   379.7	  149.16	   76.32
   426	1	 127.219	  134.47	  149.46
   427	1	 315.112	  188.71	  160.06
   428	1	 268.139	  127.69	  170.66
   429	1	 536.278	   259.9	   132.5
   430	1	 256.395	   53.11	   87.98
   431	1	 381.657	  181.93	   66.78
   432	1	 573.465	  324.31	   51.94
   433	1	 503.005	  331.09	  166.42
   434	1	 158.535	   46.33	   121.9
   435	1	 262.267	   259.9	   75.26
   436	1	 317.069	  110.74	    47.7
   437	1	 272.053	   16.95	   69.96
   438	1	 166.363	  100.57	   85.86
   439	1	 362.085	  213.57	    8.48
   440	1	 315.112	  267.81	  186.56
   441	1	 319.026	  181.93	   64.66
   442	1	 528.449	  291.54	    63.6
   443	1	  105.69	  131.08	  170.66
   444	1	 174.192	   39.55	  210.94
   445	1	 46.9732	   70.06	   121.9
   446	1	 373.829	  276.85	   43.46
   447	1	 346.427	  220.35	    42.4
   448	1	 217.251	    3.39	  182.32
   449	1	 230.952	   20.34	  195.04
   450	1	 207.465	  320.92	    68.9
   451	1	 78.2887	   97.18	  102.82
   452	1	 232.909	   25.99	   196.1
   453	1	  274.01	   135.6	   91.16
   454	1	 307.283	  186.45	  207.76
   455	1	 387.529	  155.94	   76.32
   456	1	 389.486	  247.47	   29.68
   457	1	 532.363	  334.48	  200.34
   458	1	 97.8609	   29.38	   39.22
   459	1	 371.871	   101.7	   148.4
   460	1	 64.5882	   77.97	   127.2
   461	1	 115.476	  138.99	   14.84
   462	1	 377.743	  125.43	  146.28
   463	1	 193.765	  229.39	    7.42
   464	1	 99.8181	  100.57	  102.82
   465	1	 420.802	  301.71	       0
   466	1	 246.609	  253.12	    9.54
   467	1	 166.363	  159.33	    21.2
   468	1	  499.09	  236.17	   41.34
   469	1	 299.454	   66.67	  177.02
   470	1	 183.978	  277.98	    42.4
   471	1	 183.978	  287.02	   34.98
   472	1	 207.465	  210.18	     159
   473	1	  330.77	  263.29	   43.46
   474	1	 313.155	  280.24	  138.86
   475	1	 252.481	  213.57	   36.04
   476	1	 432.545	  301.71	   16.96
   477	1	 395.358	  178.54	   77.38
   478	1	 76.3315	   32.77	  168.54
   479	1	 103.733	   98.31	   23.32
   480	1	 250.524	  273.46	  187.62
   481	1	 23.4866	   15.82	  208.82
   482	1	 244.652	  118.65	  178.08
   483	1	 411.016	   81.36	    95.4
   484	1	 371.871	   237.3	   76.32
   485	1	 285.754	   124.3	   49.82
   486	1	 407.101	  232.78	   49.82
   487	1	 254.438	    56.5	  130.38
   488	1	  105.69	  155.94	   72.08
   489	1	 242.695	    22.6	   83.74
   490	1	 434.502	   237.3	     159
   491	1	 475.604	  308.49	    8.48
   492	1	 244.652	  215.83	   66.78
   493	1	 399.272	   29.38	  157.94
   494	1	 91.9892	   32.77	  160.06
   495	1	 56.7593	   84.75	    42.4
   496	1	 313.155	  298.32	       0
   497	1	 467.775	  206.79	   148.4
   498	1	  45.016	   30.51	  154.76
   499	1	 205.508	  138.99	  122.96
   500	1	 317.069	    2.26	   56.18
   501	1	 164.406	   192.1	  102.82
   502	1	 15.6577	   15.82	   132.5
   503	1	 50.8877	   63.28	  183.38
   504	1	 254.438	  151.42	  149.46
   505	1	 258.353	  149.16	   16.96
   506	1	 412.973	  125.43	  156.88
   507	1	  309.24	  189.84	  175.96
   508	1	 289.668	   169.5	  135.68
   509	1	 360.128	  176.28	   86.92
   510	1	 424.716	  310.75	   174.9
   511	1	 113.519	  176.28	  150.52
   512	1	  309.24	  298.32	  110.24
   513	1	 209.422	  209.05	  115.54
   514	1	 393.401	   77.97	  118.72
   515	1	 195.722	    22.6	  183.38
   516	1	 195.722	  264.42	   48.76
   517	1	 391.443	  280.24	    15.9
   518	1	 416.887	   73.45	  119.78
   519	1	 471.689	  249.73	   62.54
   520	1	 422.759	  266.68	   98.58
   521	1	 242.695	  142.38	   137.8
   522	1	 395.358	    22.6	   83.74
   523	1	 311.198	  181.93	    68.9
   524	1	 43.0588	    33.9	  192.92
   525	1	 113.519	   158.2	    58.3
   526	1	 548.021	  273.46	  177.02
   527	1	  401.23	  175.15	  113.42
   528	1	 158.535	    5.65	  183.38
   529	1	 60.6737	   98.31	     159
   530	1	 373.829	  138.99	  156.88
   531	1	  520.62	  266.68	   34.98
   532	1	 219.208	   237.3	   27.56
   533	1	 461.903	   305.1	    8.48
   534	1	 375.786	  219.22	  147.34
   535	1	 193.765	  114.13	    3.18
   536	1	  140.92	  131.08	   34.98
   537	1	 277.925	  155.94	    42.4
   538	1	   379.7	  115.26	   14.84
   539	1	 109.604	  155.94	    10.6
   540	1	 232.909	  188.71	  104.94
   541	1	 305.326	  314.14	  191.86
   542	1	 74.3743	   97.18	    47.7
   543	1	 217.251	  141.25	    15.9
   544	1	 303.369	  267.81	  203.52
   545	1	 336.641	   101.7	   127.2
   546	1	 219.208	  219.22	    90.1
   547	1	 516.705	  264.42	  186.56
   548	1	 180.064	   63.28	    37.1
   549	1	 275.968	   46.33	     5.3
   550	1	 158.535	  229.39	   164.3
   551	1	 317.069	  178.54	   49.82
   552	1	 440.374	  114.13	   73.14
   553	1	 301.411	   63.28	   18.02
   554	1	 248.567	   71.19	  182.32
   555	1	 291.625	   12.43	    1.06
   556	1	 232.909	  261.03	   76.32
   557	1	 322.941	   39.55	   164.3
   558	1	 510.834	  227.13	  156.88
   559	1	 133.091	   54.24	   14.84
   560	1	 117.433	  189.84	   190.8
   561	1	  295.54	  233.91	  171.72
   562	1	 205.508	  145.77	   25.44
   563	1	  140.92	   47.46	  175.96
   564	1	 305.326	   36.16	   96.46
   565	1	 152.663	  108.48	    42.4
   566	1	  485.39	  171.76	   32.86
   567	1	 178.107	   71.19	   61.48
   568	1	 275.968	  161.59	  107.06
   569	1	 524.534	  250.86	  156.88
   570	1	 369.914	   93.79	   100.7
   571	1	 219.208	   20.34	   82.68
   572	1	 156.577	  246.34	   64.66
   573	1	  520.62	  298.32	  205.64
   574	1	 236.823	  331.09	   143.1
   575	1	 495.176	  236.17	   66.78
   576	1	 39.1443	    9.04	   96.46
   577	1	 234.866	  280.24	    7.42
   578	1	 399.272	   124.3	    79.5
   579	1	 250.524	   76.84	  149.46
   580	1	 254.438	    2.26	    90.1
   581	1	  309.24	   29.38	   153.7
   582	1	 411.016	   83.62	  113.42
   583	1	 397.315	   46.33	   77.38
   584	1	 291.625	  303.97	   100.7
   585	1	 356.214	  244.08	  120.84
   586	1	 371.871	   259.9	  102.82
   587	1	 195.722	  196.62	  152.64
   588	1	 234.866	  162.72	   50.88
   589	1	 29.3583	   10.17	   36.04
   590	1	 191.807	  232.78	  155.82
   591	1	  45.016	   50.85	    6.36
   592	1	 180.064	   54.24	   16.96
   593	1	 268.139	  168.37	   121.9
   594	1	 504.962	  232.78	  138.86
   595	1	 187.893	  185.32	  157.94
   596	1	 477.561	   271.2	  192.92
   597	1	 170.278	  200.01	  154.76
   598	1	 456.032	  310.75	  162.18
   599	1	 70.4598	    2.26	   185.5
   600	1	 262.267	  216.96	  207.76
   601	1	 477.561	  232.78	  157.94
   602	1	 287.711	  200.01	    42.4
   603	1	 407.101	     226	   66.78
   604	1	 91.9892	  134.47	   174.9
   605	1	 293.583	    67.8	   23.32
   606	1	 311.198	  322.05	  125.08
   607	1	 115.476	   -1.13	   174.9
   608	1	 397.315	  181.93	   85.86
   609	1	 48.9304	   50.85	  154.76
   610	1	 334.684	  261.03	  108.12
   611	1	 211.379	       0	  131.44
   612	1	  154.62	   19.21	  210.94
   613	1	 254.438	  253.12	   206.7
   614	1	 127.219	    3.39	    6.36
   615	1	  189.85	   77.97	   36.04
   616	1	 307.283	   23.73	   23.32
   617	1	 328.813	   305.1	   19.08
   618	1	 275.968	   44.07	  175.96
   619	1	 393.401	   25.99	   185.5
   620	1	 248.567	   80.23	  191.86
   621	1	 33.2727	   30.51	    2.12
   622	1	 230.952	   20.34	  101.76
   623	1	 246.609	  210.18	    31.8
   624	1	 268.139	  215.83	  160.06
   625	1	 70.4598	   13.56	  154.76
   626	1	 448.203	  166.11	   46.64
   627	1	 246.609	  219.22	   41.34
   628	1	 209.422	  254.25	  207.76
   629	1	 340.556	   42.94	  183.38
   630	1	 203.551	    22.6	    58.3
   631	1	 411.016	   61.02	     159
   632	1	 528.449	  273.46	   11.66
   633	1	 293.583	    22.6	   18.02
   634	1	 340.556	   15.82	   132.5
   635	1	 256.395	  114.13	   71.02
   636	1	 195.722	  307.36	  155.82
   637	1	 461.903	  223.74	    31.8
   638	1	 516.705	   327.7	  200.34
   639	1	 440.374	  233.91	   38.16
   640	1	 113.519	   70.06	  181.26
   641	1	 544.106	  277.98	   148.4
   642	1	 522.577	  297.19	    3.18
   643	1	 411.016	    56.5	   39.22
   644	1	 483.433	  213.57	  135.68
   645	1	 426.673	   259.9	  168.54
   646	1	 191.807	  246.34	   85.86
   647	1	  225.08	  220.35	   148.4
   648	1	 152.663	   63.28	  151.58
   649	1	 409.058	   64.41	   44.52
   650	1	 275.968	  161.59	  200.34
   651	1	 356.214	   76.84	   54.06
   652	1	  176.15	   88.14	  199.28
   653	1	 221.166	   37.29	   65.72
   654	1	 142.877	   -1.13	   174.9
   655	1	 31.3155	    9.04	  126.14
   656	1	 360.128	  273.46	   77.38
   657	1	 172.235	   192.1	    15.9
   658	1	 336.641	   27.12	   72.08
   659	1	 275.968	   64.41	   14.84
   660	1	 391.443	   74.58	    74.2
   661	1	 473.647	  264.42	       0
   662	1	 236.823	  240.69	  186.56
   663	1	 381.657	  206.79	    10.6
   664	1	 430.588	  164.98	  151.58
   665	1	 360.128	   135.6	  199.28
   666	1	 422.759	   293.8	    47.7
   667	1	 117.433	   54.24	   65.72
   668	1	 409.058	  324.31	    3.18
   669	1	 285.754	   42.94	  145.22
   670	1	 334.684	  281.37	  131.44
   671	1	 205.508	    5.65	    9.54
   672	1	 416.887	  261.03	  163.24
   673	1	 148.749	   49.72	   66.78
   674	1	 322.941	   32.77	   60.42
   675	1	 397.315	   50.85	     159
   676	1	 501.048	  320.92	  160.06
   677	1	 195.722	   83.62	    9.54
   678	1	 256.395	  213.57	   127.2
   679	1	 322.941	  145.77	    42.4
   680	1	 403.187	  155.94	  135.68
   681	1	 82.2031	  131.08	   185.5
   682	1	  414.93	  115.26	  135.68
   683	1	 317.069	   13.56	   169.6
   684	1	 209.422	  105.09	    2.12
   685	1	 236.823	  215.83	  128.26
   686	1	 227.037	  219.22	    79.5
   687	1	  295.54	   71.19	  133.56
   688	1	 137.005	   42.94	    58.3
   689	1	 156.577	   49.72	   49.82
   690	1	 160.492	  266.68	  170.66
   691	1	 207.465	   169.5	   12.72
   692	1	 391.443	  291.54	  165.36
   693	1	 166.363	  281.37	    6.36
   694	1	 135.048	  193.23	   67.84
   695	1	 362.085	  261.03	    42.4
   696	1	 199.636	  250.86	   116.6
   697	1	 530.406	  294.93	  122.96
   698	1	 434.502	   83.62	  166.42
   699	1	 234.866	   192.1	    3.18
   700	1	 160.492	  137.86	   132.5
   701	1	 322.941	   25.99	  145.22
   702	1	 473.647	  189.84	    84.8
   703	1	 530.406	  261.03	  171.72
   704	1	  309.24	   192.1	   164.3
   705	1	 322.941	  315.27	  209.88
   706	1	 420.802	  166.11	     159
   707	1	 129.176	   27.12	    10.6
   708	1	 66.5454	   81.36	   67.84
   709	1	 223.123	   327.7	  128.26
   710	1	 283.797	    3.39	   99.64
   711	1	 285.754	  314.14	   60.42
   712	1	 211.379	  164.98	   43.46
   713	1	 532.363	   259.9	   18.02
   714	1	 332.727	  250.86	   67.84
   715	1	 348.385	   135.6	  108.12
   716	1	 272.053	  159.33	  173.84
   717	1	 418.845	    56.5	  145.22
   718	1	 367.957	  155.94	   57.24
   719	1	 387.529	   54.24	   38.16
   720	1	 393.401	   98.31	  150.52
   721	1	  344.47	    6.78	   59.36
   722	1	 209.422	  175.15	  104.94
   723	1	 350.342	  168.37	   56.18
   724	1	  260.31	  154.81	  151.58
   725	1	 362.085	  179.67	   148.4
   726	1	 287.711	  125.43	    42.4
   727	1	 174.192	  261.03	      53
   728	1	  401.23	   93.79	  104.94
   729	1	 385.572	  233.91	  163.24
   730	1	 160.492	   83.62	   121.9
   731	1	 277.925	   271.2	  146.28
   732	1	 424.716	  288.15	  186.56
   733	1	 223.123	   63.28	    9.54
   734	1	 522.577	  297.19	  117.66
   735	1	 11.7433	    6.78	   72.08
   736	1	  260.31	   23.73	   61.48
   737	1	 197.679	  166.11	  144.16
   738	1	  520.62	     226	   24.38
   739	1	 477.561	  212.44	  202.46
   740	1	 311.198	  227.13	   33.92
   741	1	 381.657	  301.71	   19.08
   742	1	 387.529	  108.48	   16.96
   743	1	 508.877	  239.56	  177.02
   744	1	 187.893	  223.74	   48.76
   745	1	 491.262	  276.85	   73.14
   746	1	  485.39	  198.88	   83.74
   747	1	 340.556	  253.12	     5.3
   748	1	 152.663	  189.84	  146.28
   749	1	 21.5294	   -1.13	   77.38
   750	1	 193.765	  328.83	  139.92
   751	1	 121.347	   101.7	   76.32
   752	1	 230.952	  239.56	  134.62
   753	1	 211.379	  178.54	   11.66
   754	1	 397.315	   84.75	    42.4
   755	1	 297.497	  110.74	  107.06
   756	1	 152.663	  151.42	   56.18
   757	1	 283.797	   50.85	    21.2
   758	1	 391.443	  198.88	  208.82
   759	1	 407.101	  300.58	    37.1
   760	1	 385.572	  138.99	   169.6
   761	1	 522.577	  281.37	   36.04
   762	1	 342.513	  195.49	  183.38
   763	1	 565.636	  310.75	  136.74
   764	1	 211.379	  176.28	   201.4
   765	1	  154.62	  179.67	  108.12
   766	1	 467.775	  290.41	  147.34
   767	1	 148.749	   101.7	   69.96
   768	1	 101.775	   42.94	   39.22
   769	1	 268.139	  335.61	   65.72
   770	1	  520.62	  334.48	   43.46
   771	1	 80.2459	   44.07	  182.32
   772	1	 375.786	   74.58	   36.04
   773	1	 207.465	  325.44	   19.08
   774	1	 129.176	   27.12	   148.4
   775	1	 125.262	    22.6	  104.94
   776	1	 170.278	   37.29	  150.52
   777	1	 80.2459	   25.99	  119.78
   778	1	 148.749	    90.4	  162.18
   779	1	  569.55	  315.27	  118.72
   780	1	 432.545	  301.71	  182.32
   781	1	 454.074	   259.9	  210.94
   782	1	 446.246	   203.4	    10.6
   783	1	 277.925	   259.9	  208.82
   784	1	 317.069	  320.92	   92.22
   785	1	 183.978	  298.32	     106
   786	1	 367.957	  284.76	  197.16
   787	1	 74.3743	  108.48	   169.6
   788	1	 319.026	  301.71	   50.88
   789	1	 236.823	  242.95	  177.02
   790	1	 146.791	   73.45	    90.1
   791	1	 152.663	    22.6	  102.82
   792	1	 293.583	  277.98	   78.44
   793	1	  569.55	  322.05	   38.16
   794	1	 391.443	  189.84	   89.04
   795	1	  485.39	   203.4	  195.04
   796	1	 381.657	  215.83	  155.82
   797	1	  401.23	   64.41	    21.2
   798	1	 397.315	   84.75	   50.88
   799	1	 350.342	  227.13	   29.68
   800	1	 553.893	  283.63	  172.78
   801	1	 313.155	  266.68	    7.42
   802	1	 201.593	  331.09	  134.62
   803	1	 385.572	  118.65	    6.36
   804	1	 328.813	  216.96	    4.24
   805	1	 54.8021	   74.58	  101.76
   806	1	 291.625	    3.39	  112.36
   807	1	 52.8449	   25.99	    79.5
   808	1	 544.106	  291.54	  167.48
   809	1	 407.101	  110.74	  160.06
   810	1	 397.315	   16.95	      53
   811	1	 191.807	   36.16	    15.9
   812	1	 254.438	  219.22	   153.7
   813	1	 248.567	   10.17	   89.04
   814	1	 358.171	  242.95	   45.58
   815	1	  330.77	   87.01	  102.82
   816	1	 479.518	  240.69	    74.2
   817	1	 352.299	    67.8	   25.44
   818	1	 123.305	   91.53	   169.6
   819	1	 456.032	  132.21	  205.64
   820	1	 332.727	  307.36	    1.06
   821	1	 411.016	  230.52	   78.44
   822	1	 240.738	   91.53	   44.52
   823	1	 78.2887	   124.3	   60.42
   824	1	 440.374	  141.25	   60.42
   825	1	  189.85	   84.75	   65.72
   826	1	 178.107	  288.15	  133.56
   827	1	 207.465	  253.12	   32.86
   828	1	 182.021	   19.21	  177.02