ITEM: TIMESTEP
0
ITEM: NUMBER OF ATOMS
1000
ITEM: BOX BOUNDS xy xz yz
-195.722	391.443	195.722
-169.5	169.5	0
-106	106	0
ITEM: ATOMS index type x y z
     0	1	 452.117	  125.43	    42.4
     1	1	 342.513	  301.71	  114.48
     2	1	 46.9732	   76.84	  138.86
     3	1	 156.577	   15.82	   41.34
     4	1	 442.331	   271.2	  165.36
     5	1	 411.016	   42.94	   87.98
     6	1	 315.112	   39.55	    15.9
     7	1	  260.31	  301.71	   190.8
     8	1	 326.855	   50.85	    84.8
     9	1	 144.834	  196.62	  101.76
    10	1	 242.695	  171.76	  198.22
    11	1	 137.005	   42.94	  124.02
    12	1	 317.069	    56.5	    3.18
    13	1	 452.117	  152.55	   190.8
    14	1	   379.7	  115.26	   29.68
    15	1	 383.615	  216.96	    21.2
    16	1	 146.791	  249.73	    68.9
    17	1	 457.989	  250.86	   23.32
    18	1	 113.519	   76.84	     5.3
    19	1	  274.01	  250.86	   99.64
    20	1	 397.315	   57.63	   169.6
    21	1	 305.326	   192.1	  130.38
    22	1	 185.936	  141.25	  117.66
    23	1	 256.395	   57.63	   25.44
    24	1	 411.016	  205.66	    26.5
    25	1	 52.8449	    3.39	  120.84
    26	1	 293.583	   94.92	  103.88
    27	1	 101.775	  155.94	      53
    28	1	 170.278	  220.35	  205.64
    29	1	 146.791	  222.61	  191.86
    30	1	  309.24	   20.34	  144.16
    31	1	 407.101	   49.72	     5.3
    32	1	 238.781	  155.94	  101.76
    33	1	 326.855	  301.71	  205.64
    34	1	  119.39	  111.87	   33.92
    35	1	  119.39	  159.33	  125.08
    36	1	  344.47	   271.2	    74.2
    37	1	 219.208	  219.22	   56.18
    38	1	 420.802	  290.41	   60.42
    39	1	 88.0748	  138.99	  184.44
    40	1	  176.15	  176.28	  203.52
    41	1	 369.914	   71.19	   61.48
    42	1	 469.732	  176.28	    2.12
    43	1	 46.9732	   63.28	  126.14
    44	1	 548.021	  277.98	   23.32
    45	1	 510.834	  297.19	  189.74
    46	1	 228.994	   57.63	   23.32
    47	1	 213.337	  172.89	   78.44
    48	1	  154.62	  120.91	   164.3
    49	1	 491.262	  215.83	  102.82
    50	1	  189.85	  222.61	   111.3
    51	1	 385.572	   25.99	   45.58
    52	1	 215.294	   47.46	   46.64
    53	1	  274.01	   259.9	   45.58
    54	1	 320.984	   29.38	   45.58
    55	1	 336.641	  178.54	   56.18
    56	1	  309.24	  189.84	  184.44
    57	1	 364.042	   88.14	  108.12
    58	1	 99.8181	  107.35	   24.38
    59	1	 58.7165	   83.62	  149.46
    60	1	 193.765	  283.63	  134.62
    61	1	 137.005	   15.82	  130.38
    62	1	 465.818	  264.42	  205.64
    63	1	 340.556	   135.6	  110.24
    64	1	 364.042	   40.68	  122.96
    65	1	 303.369	  310.75	   51.94
    66	1	 360.128	   271.2	   25.44
    67	1	   379.7	  103.96	   64.66
    68	1	 258.353	   259.9	  102.82
    69	1	 68.5026	   10.17	     106
    70	1	  485.39	  291.54	  122.96
    71	1	 197.679	   91.53	   29.68
    72	1	 162.449	  213.57	   19.08
    73	1	   379.7	  155.94	   23.32
    74	1	 281.839	  298.32	   50.88
    75	1	  176.15	  280.24	   13.78
    76	1	 293.583	  332.22	  135.68
    77	1	  499.09	  297.19	  102.82
    78	1	 301.411	   36.16	  160.06
    79	1	 369.914	  138.99	   72.08
    80	1	 170.278	  240.69	     159
    81	1	 123.305	  175.15	  208.82
    82	1	 301.411	    56.5	  115.54
    83	1	 193.765	  324.31	   56.18
    84	1	 387.529	   47.46	  144.16
    85	1	 518.663	  290.41	  107.06
    86	1	 125.262	   81.36	  165.36
    87	1	 416.887	  220.35	  122.96
    88	1	 407.101	  196.62	   86.92
    89	1	 205.508	  283.63	     5.3
    90	1	 326.855	  247.47	  133.56
    91	1	 420.802	  297.19	    7.42
    92	1	 191.807	  212.44	    90.1
    93	1	 501.048	  332.22	   190.8
    94	1	 465.818	  131.08	    26.5
    95	1	 315.112	  215.83	  145.22
    96	1	 367.957	  264.42	   137.8
    97	1	 367.957	  280.24	  189.74
    98	1	 289.668	  205.66	   185.5
    99	1	  140.92	  122.04	  207.76
   100	1	 454.074	   158.2	  183.38
   101	1	 369.914	  202.27	   100.7
   102	1	 469.732	  320.92	  172.78
   103	1	 187.893	    6.78	   190.8
   104	1	 156.577	   36.16	  102.82
   105	1	 375.786	   305.1	    42.4
   106	1	 156.577	    9.04	   164.3
   107	1	 99.8181	   32.77	  208.82
   108	1	  274.01	  219.22	   60.42
   109	1	 172.235	   63.28	  204.58
   110	1	 399.272	  151.42	  147.34
   111	1	 182.021	  294.93	   46.64
   112	1	 293.583	  196.62	  209.88
   113	1	 393.401	  148.03	   54.06
   114	1	 467.775	  138.99	    6.36
   115	1	 360.128	  216.96	   40.28
   116	1	 491.262	  263.29	    58.3
   117	1	 403.187	   36.16	   132.5
   118	1	 293.583	  205.66	   100.7
   119	1	 256.395	  303.97	     5.3
   120	1	 334.684	   71.19	   89.04
   121	1	 211.379	   327.7	   81.62
   122	1	 230.952	  232.78	  200.34
   123	1	 244.652	  222.61	  128.26
   124	1	  225.08	  213.57	   59.36
   125	1	 334.684	    5.65	   81.62
   126	1	 234.866	  151.42	  134.62
   127	1	   379.7	   29.38	  155.82
   128	1	 371.871	   49.72	   77.38
   129	1	 91.9892	   93.79	   121.9
   130	1	 383.615	   169.5	   67.84
   131	1	 328.813	  311.88	   78.44
   132	1	 336.641	  205.66	  113.42
   133	1	 553.893	  283.63	  117.66
   134	1	 197.679	  145.77	   57.24
   135	1	 279.882	   59.89	   100.7
   136	1	 217.251	    3.39	    4.24
   137	1	 221.166	  175.15	  107.06
   138	1	 19.5722	       0	  184.44
   139	1	 503.005	  324.31	   66.78
   140	1	 381.657	  254.25	  203.52
   141	1	 338.599	   16.95	   25.44
   142	1	 262.267	  300.58	   22.26
   143	1	 446.246	  122.04	  118.72
   144	1	 483.433	  179.67	  205.64
   145	1	  414.93	   54.24	  178.08
   146	1	 236.823	  168.37	   66.78
   147	1	 150.706	  154.81	   206.7
   148	1	  295.54	   25.99	  155.82
   149	1	  330.77	  148.03	  181.26
   150	1	  154.62	   10.17	   127.2
   151	1	 230.952	  131.08	  187.62
   152	1	 205.508	  301.71	  205.64
   153	1	  344.47	  162.72	  122.96
   154	1	 503.005	  328.83	   12.72
   155	1	 93.9464	  151.42	  115.54
   156	1	 183.978	  246.34	  124.02
   157	1	  225.08	  166.11	  150.52
   158	1	 360.128	  117.52	   96.46
   159	1	 399.272	   169.5	   99.64
   160	1	 328.813	  176.28	   80.56
   161	1	 227.037	  108.48	  131.44
   162	1	 217.251	  297.19	  181.26
   163	1	 254.438	  205.66	  151.58
   164	1	 199.636	   158.2	  151.58
   165	1	 78.2887	  117.52	   153.7
   166	1	  450.16	   327.7	  115.54
   167	1	 495.176	  233.91	   91.16
   168	1	 246.609	   76.84	  151.58
   169	1	 412.973	   53.11	   20.14
   170	1	 191.807	   13.56	    10.6
   171	1	 336.641	  122.04	  142.04
   172	1	 168.321	   63.28	   83.74
   173	1	  189.85	  148.03	  181.26
   174	1	 29.3583	   44.07	   38.16
   175	1	 409.058	   64.41	   80.56
   176	1	 232.909	   44.07	   57.24
   177	1	 340.556	  277.98	   27.56
   178	1	 342.513	  261.03	   46.64
   179	1	 305.326	   42.94	   85.86
   180	1	 438.417	  298.32	   36.04
   181	1	 508.877	  287.02	  107.06
   182	1	 385.572	  249.73	   83.74
   183	1	 510.834	  276.85	  191.86
   184	1	 403.187	  178.54	  140.98
   185	1	  189.85	  274.59	  135.68
   186	1	 434.502	  198.88	  162.18
   187	1	 240.738	   19.21	  138.86
   188	1	 150.706	  247.47	   65.72
   189	1	 518.663	  263.29	  115.54
   190	1	  154.62	  200.01	   33.92
   191	1	 399.272	  219.22	  204.58
   192	1	 375.786	    56.5	     5.3
   193	1	 371.871	     226	    15.9
   194	1	 31.3155	   54.24	  114.48
   195	1	 219.208	   76.84	  191.86
   196	1	 111.561	  166.11	   40.28
   197	1	 213.337	   10.17	   33.92
   198	1	 156.577	   192.1	    37.1
   199	1	 350.342	   77.97	   97.52
   200	1	 336.641	  232.78	  198.22
   201	1	 228.994	  317.53	  119.78
   202	1	 328.813	  320.92	   98.58
   203	1	 571.507	  325.44	  178.08
   204	1	 187.893	   70.06	  134.62
   205	1	 242.695	   169.5	    4.24
   206	1	 240.738	  322.05	  178.08
   207	1	 409.058	  261.03	  161.12
   208	1	 409.058	  100.57	   71.02
   209	1	 135.048	  125.43	   27.56
   210	1	 471.689	  335.61	  101.76
   211	1	 326.855	   64.41	   29.68
   212	1	 373.829	   30.51	    95.4
   213	1	 383.615	  212.44	   34.98
   214	1	  176.15	   97.18	  115.54
   215	1	 405.144	  240.69	   46.64
   216	1	 463.861	  274.59	   127.2
   217	1	 473.647	   271.2	  120.84
   218	1	 209.422	  118.65	  131.44
   219	1	 223.123	   76.84	  119.78
   220	1	 387.529	  307.36	   13.78
   221	1	 503.005	  276.85	  145.22
   222	1	 201.593	  105.09	    42.4
   223	1	 412.973	   87.01	  124.02
   224	1	 465.818	  212.44	  147.34
   225	1	 291.625	  233.91	      53
   226	1	 497.133	  300.58	  202.46
   227	1	 84.1603	   23.73	  171.72
   228	1	 385.572	  310.75	   34.98
   229	1	 95.9037	   32.77	    47.7
   230	1	 418.845	  210.18	  122.96
   231	1	 254.438	    56.5	   100.7
   232	1	  295.54	  148.03	  177.02
   233	1	 354.256	  261.03	   201.4
   234	1	 213.337	   39.55	   206.7
   235	1	 397.315	  290.41	   45.58
   236	1	 463.861	  240.69	  114.48
   237	1	 391.443	  325.44	   72.08
   238	1	 467.775	  154.81	   206.7
   239	1	 424.716	  281.37	   169.6
   240	1	 182.021	  229.39	  166.42
   241	1	 232.909	   91.53	   29.68
   242	1	  450.16	  151.42	   174.9
   243	1	 199.636	   158.2	   43.46
   244	1	 493.219	  210.18	   19.08
   245	1	 131.134	  213.57	    95.4
   246	1	 303.369	   93.79	   18.02
   247	1	  274.01	  212.44	   98.58
   248	1	 434.502	   88.14	   78.44
   249	1	 291.625	  166.11	  156.88
   250	1	 567.593	  311.88	  152.64
   251	1	  189.85	  193.23	    84.8
   252	1	 311.198	   32.77	   206.7
   253	1	 152.663	   88.14	   48.76
   254	1	 395.358	  210.18	   89.04
   255	1	 346.427	   44.07	   78.44
   256	1	 272.053	  227.13	  150.52
   257	1	 457.989	  131.08	   51.94
   258	1	 240.738	  328.83	   99.64
   259	1	 454.074	  144.64	   174.9
   260	1	 74.3743	   15.82	    68.9
   261	1	 322.941	   57.63	    4.24
   262	1	 432.545	  175.15	   62.54
   263	1	 477.561	  277.98	  156.88
   264	1	 416.887	  283.63	   98.58
   265	1	 258.353	  230.52	   137.8
   266	1	 228.994	  114.13	  181.26
   267	1	 183.978	   83.62	  115.54
   268	1	 191.807	  137.86	   66.78
   269	1	 264.224	  227.13	  139.92
   270	1	 209.422	  152.55	  133.56
   271	1	 377.743	  181.93	  149.46
   272	1	 156.577	  137.86	   196.1
   273	1	 238.781	  216.96	   57.24
   274	1	 191.807	   74.58	      53
   275	1	 258.353	   305.1	  139.92
   276	1	 373.829	    5.65	  204.58
   277	1	     366	  161.59	   32.86
   278	1	 74.3743	   61.02	    10.6
   279	1	 219.208	  284.76	  199.28
   280	1	 303.369	  168.37	   132.5
   281	1	   379.7	  239.56	    15.9
   282	1	 244.652	  335.61	  114.48
   283	1	 426.673	  311.88	   99.64
   284	1	 281.839	  284.76	   29.68
   285	1	 180.064	  298.32	   78.44
   286	1	  105.69	    2.26	   96.46
   287	1	 393.401	   30.51	  101.76
   288	1	  295.54	  328.83	   59.36
   289	1	 346.427	   84.75	  195.04
   290	1	 293.583	    67.8	  188.68
   291	1	 411.016	  108.48	   27.56
   292	1	 497.133	  210.18	  178.08
   293	1	  330.77	  188.71	  126.14
   294	1	 254.438	   40.68	   61.48
   295	1	 315.112	  172.89	  114.48
   296	1	 270.096	  110.74	  168.54
   297	1	 217.251	  283.63	  107.06
   298	1	 103.733	   23.73	  188.68
   299	1	 387.529	   20.34	   55.12
   300	1	  520.62	  264.42	    74.2
   301	1	 385.572	  186.45	  203.52
   302	1	 250.524	  246.34	  166.42
   303	1	 319.026	  168.37	  145.22
   304	1	  176.15	   36.16	    9.54
   305	1	     366	  168.37	  145.22
   306	1	 66.5454	       0	   36.04
   307	1	 275.968	   16.95	   27.56
   308	1	 297.497	  273.46	    15.9
   309	1	 201.593	  301.71	   169.6
   310	1	 166.363	   98.31	   23.32
   311	1	 182.021	  141.25	   41.34
   312	1	 183.978	   203.4	  188.68
   313	1	 166.363	  256.51	  193.98
   314	1	 148.749	  253.12	  104.94
   315	1	 362.085	  310.75	    9.54
   316	1	 150.706	  111.87	  173.84
   317	1	 469.732	  334.48	   164.3
   318	1	 107.647	  161.59	  191.86
   319	1	  485.39	  176.28	   48.76
   320	1	 291.625	  335.61	  114.48
   321	1	 215.294	  314.14	  138.86
   322	1	 385.572	  105.09	    31.8
   323	1	 250.524	  277.98	  195.04
   324	1	 469.732	   169.5	  192.92
   325	1	 183.978	  144.64	   60.42
   326	1	 530.406	  242.95	  191.86
   327	1	  450.16	   158.2	  107.06
   328	1	 452.117	  213.57	   55.12
   329	1	  450.16	   293.8	  208.82
   330	1	  154.62	   93.79	   77.38
   331	1	 238.781	   101.7	      53
   332	1	 317.069	  122.04	  184.44
   333	1	  154.62	   84.75	  146.28
   334	1	 148.749	  128.82	  154.76
   335	1	 487.347	  168.37	  138.86
   336	1	 479.518	  301.71	   137.8
   337	1	 135.048	  209.05	   51.94
   338	1	 399.272	   20.34	   23.32
   339	1	 350.342	  276.85	    37.1
   340	1	 174.192	   64.41	   33.92
   341	1	 187.893	  205.66	   28.62
   342	1	 246.609	  117.52	   18.02
   343	1	 440.374	  303.97	   22.26
   344	1	 91.9892	   80.23	  172.78
   345	1	  176.15	   192.1	   32.86
   346	1	 501.048	  291.54	  178.08
   347	1	 540.192	  332.22	   201.4
   348	1	 377.743	  141.25	  191.86
   349	1	 326.855	  220.35	   93.28
   350	1	 291.625	  127.69	    3.18
   351	1	 95.9037	   59.89	  138.86
   352	1	 240.738	   73.45	   75.26
   353	1	 266.182	   135.6	     106
   354	1	 277.925	  103.96	   41.34
   355	1	 221.166	    5.65	   77.38
   356	1	 438.417	  142.38	   116.6
   357	1	 168.321	   70.06	  104.94
   358	1	 305.326	   36.16	   54.06
   359	1	 367.957	  250.86	    74.2
   360	1	 287.711	  324.31	    79.5
   361	1	 156.577	   158.2	    26.5
   362	1	 465.818	  291.54	  184.44
   363	1	 256.395	   59.89	   185.5
   364	1	 156.577	   259.9	  191.86
   365	1	 205.508	  261.03	  184.44
   366	1	  140.92	   83.62	   62.54
   367	1	 420.802	  242.95	  102.82
   368	1	 356.214	  183.06	  142.04
   369	1	 489.304	   259.9	  202.46
   370	1	 209.422	  242.95	  145.22
   371	1	 248.567	  315.27	   127.2
   372	1	  295.54	  229.39	   32.86
   373	1	 364.042	  142.38	    31.8
   374	1	 205.508	  283.63	  189.74
   375	1	 352.299	    33.9	  175.96
   376	1	 187.893	   259.9	   98.58
   377	1	 356.214	  287.02	  117.66
   378	1	 50.8877	    56.5	    1.06
   379	1	 403.187	    56.5	  138.86
   380	1	 346.427	  315.27	  156.88
   381	1	 207.465	  185.32	  157.94
   382	1	 411.016	  277.98	      53
   383	1	 95.9037	   16.95	   27.56
   384	1	 430.588	  189.84	    84.8
   385	1	 111.561	  138.99	  144.16
   386	1	 217.251	  222.61	   41.34
   387	1	 207.465	  117.52	   56.18
   388	1	 356.214	   97.18	  204.58
   389	1	 311.198	  188.71	   121.9
   390	1	 352.299	   63.28	  193.98
   391	1	 326.855	   53.11	  151.58
   392	1	 434.502	  320.92	  124.02
   393	1	  274.01	  198.88	    15.9
   394	1	 213.337	   25.99	  147.34
   395	1	 452.117	  240.69	   46.64
   396	1	 268.139	   25.99	  202.46
   397	1	  534.32	  261.03	  161.12
   398	1	 195.722	   36.16	  189.74
   399	1	 319.026	  276.85	   96.46
   400	1	 152.663	  250.86	  146.28
   401	1	 191.807	  131.08	   28.62
   402	1	 446.246	  253.12	   71.02
   403	1	 166.363	  105.09	  150.52
   404	1	 230.952	   158.2	   81.62
   405	1	 348.385	   15.82	  119.78
   406	1	 252.481	  168.37	   92.22
   407	1	 418.845	  110.74	   32.86
   408	1	 270.096	   61.02	   48.76
   409	1	 322.941	   37.29	   44.52
   410	1	  414.93	  219.22	   39.22
   411	1	 457.989	  244.08	   93.28
   412	1	  309.24	   54.24	   67.84
   413	1	 191.807	  122.04	   93.28
   414	1	 244.652	  125.43	   19.08
   415	1	 115.476	  154.81	    3.18
   416	1	 364.042	  183.06	   99.64
   417	1	 254.438	    6.78	  118.72
   418	1	 369.914	   16.95	  175.96
   419	1	 33.2727	    5.65	    68.9
   420	1	 299.454	  161.59	  202.46
   421	1	 319.026	   66.67	    79.5
   422	1	  485.39	  314.14	  160.06
   423	1	 223.123	  284.76	   93.28
   424	1	 454.074	   203.4	  165.36
   425	1	 416.887	  114.13	   54.06
   426	1	 375.786	   271.2	   116.6
   427	1	 275.968	   53.11	  149.46
   428	1	 25.4438	   12.43	  155.82
   429	1	  274.01	    56.5	  117.66
   430	1	 258.353	   192.1	   164.3
   431	1	 391.443	  108.48	  161.12
   432	1	 311.198	  281.37	  165.36
   433	1	 205.508	  294.93	  112.36
   434	1	 315.112	  213.57	   12.72
   435	1	 319.026	   59.89	  166.42
   436	1	 367.957	  246.34	   49.82
   437	1	 201.593	  240.69	  112.36
   438	1	 299.454	  297.19	   54.06
   439	1	 19.5722	    22.6	   77.38
   440	1	 407.101	   271.2	   55.12
   441	1	 199.636	   27.12	  173.84
   442	1	 313.155	   20.34	  146.28
   443	1	 285.754	  287.02	    3.18
   444	1	 495.176	  267.81	   99.64
   445	1	 444.288	  206.79	  182.32
   446	1	 348.385	  108.48	   27.56
   447	1	 250.524	   15.82	  113.42
   448	1	 156.577	   61.02	     106
   449	1	 170.278	   66.67	   121.9
   450	1	 103.733	   57.63	  154.76
   451	1	 41.1016	   25.99	   13.78
   452	1	  295.54	  317.53	  179.14
   453	1	 103.733	   66.67	  202.46
   454	1	 367.957	    2.26	  104.94
   455	1	 238.781	  232.78	   28.62
   456	1	 232.909	   91.53	  178.08
   457	1	 185.936	  209.05	   196.1
   458	1	 440.374	  127.69	  162.18
   459	1	 377.743	  324.31	   54.06
   460	1	 242.695	   20.34	  122.96
   461	1	 111.561	  127.69	   174.9
   462	1	 346.427	  256.51	  187.62
   463	1	  90.032	   74.58	   93.28
   464	1	 162.449	  141.25	    1.06
   465	1	 487.347	  283.63	    37.1
   466	1	 348.385	   27.12	     159
   467	1	 162.449	  263.29	   71.02
   468	1	 160.492	  164.98	   174.9
   469	1	  189.85	    3.39	  133.56
   470	1	 307.283	  152.55	    6.36
   471	1	 70.4598	   83.62	   11.66
   472	1	 334.684	  290.41	   71.02
   473	1	  401.23	  317.53	  149.46
   474	1	 322.941	    5.65	  168.54
   475	1	 356.214	  307.36	   153.7
   476	1	 146.791	  168.37	  149.46
   477	1	 146.791	  145.77	   93.28
   478	1	 268.139	  301.71	  192.92
   479	1	 573.465	  335.61	   12.72
   480	1	 328.813	    6.78	    95.4
   481	1	 428.631	  161.59	  102.82
   482	1	 185.936	   16.95	  161.12
   483	1	 403.187	  230.52	  118.72
   484	1	 197.679	  186.45	   55.12
   485	1	 242.695	  287.02	  157.94
   486	1	 213.337	   73.45	   174.9
   487	1	 412.973	  270.07	  151.58
   488	1	 501.048	  325.44	  175.96
   489	1	 123.305	  154.81	   85.86
   490	1	 103.733	  132.21	    10.6
   491	1	 424.716	  249.73	  130.38
   492	1	  295.54	   80.23	   20.14
   493	1	 219.208	  223.74	  165.36
   494	1	 540.192	  264.42	  188.68
   495	1	 334.684	  193.23	   180.2
   496	1	 127.219	    3.39	  125.08
   497	1	 270.096	   192.1	     5.3
   498	1	 97.8609	   83.62	    7.42
   499	1	 268.139	  193.23	  154.76
   500	1	  534.32	  283.63	  104.94
   501	1	 350.342	  222.61	   11.66
   502	1	 577.379	  331.09	  198.22
   503	1	 463.861	  236.17	  124.02
   504	1	 553.893	  331.09	  162.18
   505	1	 422.759	  244.08	      53
   506	1	 340.556	  264.42	  110.24
   507	1	 369.914	  322.05	    21.2
   508	1	 223.123	   27.12	  186.56
   509	1	 252.481	  188.71	   153.7
   510	1	 373.829	  100.57	  210.94
   511	1	 367.957	  149.16	   76.32
   512	1	 246.609	  284.76	   12.72
   513	1	 364.042	  246.34	   164.3
   514	1	 405.144	   87.01	    37.1
   515	1	 150.706	   39.55	  128.26
   516	1	 373.829	  186.45	  175.96
   517	1	 467.775	  209.05	  145.22
   518	1	 491.262	  297.19	   164.3
   519	1	 383.615	   293.8	  181.26
   520	1	 283.797	   93.79	   94.34
   521	1	 428.631	  256.51	  160.06
   522	1	 168.321	  223.74	   116.6
   523	1	 420.802	  229.39	  102.82
   524	1	 426.673	  250.86	  125.08
   525	1	 248.567	  335.61	   61.48
   526	1	 528.449	  320.92	   75.26
   527	1	 133.091	  142.38	    95.4
   528	1	 512.791	  212.44	  113.42
   529	1	 362.085	   23.73	  139.92
   530	1	 183.978	  298.32	  133.56
   531	1	 518.663	  303.97	  189.74
   532	1	 317.069	  185.32	  102.82
   533	1	 135.048	  111.87	  195.04
   534	1	  119.39	   84.75	   67.84
   535	1	 397.315	  120.91	    68.9
   536	1	  119.39	  154.81	   153.7
   537	1	 399.272	   259.9	    37.1
   538	1	 377.743	   53.11	    15.9
   539	1	 76.3315	   -1.13	   30.74
   540	1	  260.31	  247.47	  114.48
   541	1	 142.877	  206.79	   48.76
   542	1	 399.272	  128.82	   91.16
   543	1	 246.609	    22.6	   22.26
   544	1	 287.711	   87.01	  134.62
   545	1	 270.096	  176.28	  139.92
   546	1	 228.994	  261.03	  175.96
   547	1	 516.705	  284.76	  205.64
   548	1	 440.374	  242.95	  191.86
   549	1	 420.802	   77.97	   148.4
   550	1	 442.331	   203.4	   25.44
   551	1	 31.3155	   13.56	    10.6
   552	1	 420.802	  118.65	   86.92
   553	1	 371.871	   305.1	  163.24
   554	1	 375.786	  223.74	  207.76
   555	1	 99.8181	   77.97	  192.92
   556	1	 369.914	   30.51	   36.04
   557	1	 362.085	  172.89	      53
   558	1	 183.978	  277.98	   61.48
   559	1	 205.508	  317.53	  166.42
   560	1	  414.93	  162.72	      53
   561	1	  140.92	    22.6	    9.54
   562	1	 403.187	   81.36	   116.6
   563	1	 293.583	    2.26	  208.82
   564	1	  401.23	  335.61	  163.24
   565	1	 403.187	  216.96	  144.16
   566	1	 506.919	  303.97	   98.58
   567	1	 52.8449	   53.11	   196.1
   568	1	 530.406	  288.15	   72.08
   569	1	 268.139	  317.53	   41.34
   570	1	 234.866	   81.36	   12.72
   571	1	  450.16	  277.98	  192.92
   572	1	 291.625	  120.91	   18.02
   573	1	 510.834	  263.29	  179.14
   574	1	 440.374	  301.71	   27.56
   575	1	 454.074	  280.24	   11.66
   576	1	 252.481	   30.51	   57.24
   577	1	 66.5454	   70.06	   96.46
   578	1	 395.358	  171.76	   143.1
   579	1	 303.369	  281.37	   55.12
   580	1	 422.759	  239.56	   96.46
   581	1	 501.048	  298.32	   57.24
   582	1	 385.572	  159.33	   50.88
   583	1	 383.615	  103.96	   73.14
   584	1	 491.262	  206.79	  175.96
   585	1	 264.224	   64.41	       0
   586	1	 518.663	  303.97	    68.9
   587	1	 101.775	   40.68	  129.32
   588	1	 166.363	  159.33	   78.44
   589	1	 334.684	  175.15	  204.58
   590	1	 152.663	  115.26	   40.28
   591	1	 150.706	   91.53	   69.96
   592	1	 504.962	   237.3	   86.92
   593	1	  295.54	   73.45	   34.98
   594	1	 320.984	  131.08	  200.34
   595	1	 131.134	   -1.13	   13.78
   596	1	 236.823	  227.13	  125.08
   597	1	 336.641	   61.02	  184.44
   598	1	 301.411	  205.66	  162.18
   599	1	 64.5882	  105.09	   61.48
   600	1	  309.24	  122.04	   89.04
   601	1	 178.107	  195.49	   98.58
   602	1	 444.288	  335.61	  146.28
   603	1	 86.1176	   40.68	  112.36
   604	1	 373.829	   66.67	  170.66
   605	1	 152.663	   158.2	  193.98
   606	1	  176.15	   47.46	  142.04
   607	1	 170.278	   59.89	   39.22
   608	1	 303.369	  288.15	    42.4
   609	1	  260.31	  206.79	  205.64
   610	1	 373.829	   50.85	    10.6
   611	1	 209.422	  276.85	  134.62
   612	1	 185.936	  256.51	   39.22
   613	1	 166.363	  270.07	    9.54
   614	1	 338.599	  308.49	   48.76
   615	1	 43.0588	   15.82	   60.42
   616	1	 101.775	  108.48	  101.76
   617	1	 174.192	   -1.13	  170.66
   618	1	 371.871	  219.22	   49.82
   619	1	 227.037	  164.98	   43.46
   620	1	 328.813	   158.2	   83.74
   621	1	 217.251	   39.55	  138.86
   622	1	 289.668	   49.72	   28.62
   623	1	 422.759	   327.7	    3.18
   624	1	 103.733	  125.43	   25.44
   625	1	 352.299	   76.84	   87.98
   626	1	 258.353	  142.38	     159
   627	1	 387.529	  264.42	   190.8
   628	1	 287.711	   37.29	  112.36
   629	1	 389.486	  125.43	   33.92
   630	1	 418.845	  131.08	   196.1
   631	1	 191.807	  189.84	  146.28
   632	1	 172.235	  176.28	   137.8
   633	1	 334.684	  166.11	   65.72
   634	1	 197.679	   44.07	  156.88
   635	1	 317.069	  332.22	   61.48
   636	1	 244.652	   87.01	   206.7
   637	1	 174.192	   32.77	  189.74
   638	1	 156.577	    67.8	   93.28
   639	1	  414.93	  149.16	    95.4
   640	1	 375.786	  325.44	   148.4
   641	1	 170.278	  270.07	    26.5
   642	1	 377.743	  105.09	  203.52
   643	1	 211.379	  311.88	  139.92
   644	1	 385.572	  290.41	   30.74
   645	1	 111.561	  125.43	   116.6
   646	1	 248.567	  145.77	  195.04
   647	1	 68.5026	   91.53	  135.68
   648	1	 182.021	  236.17	   196.1
   649	1	 82.2031	    6.78	    95.4
   650	1	 536.278	  325.44	  205.64
   651	1	  72.417	   71.19	    95.4
   652	1	  330.77	  317.53	    26.5
   653	1	 352.299	  108.48	   99.64
   654	1	 381.657	  161.59	   75.26
   655	1	 360.128	  244.08	   67.84
   656	1	 246.609	  176.28	   78.44
   657	1	 463.861	  220.35	  122.96
   658	1	 364.042	   94.92	  182.32
   659	1	  401.23	   44.07	   93.28
   660	1	 538.235	  301.71	   65.72
   661	1	 115.476	   12.43	  109.18
   662	1	 375.786	  314.14	  124.02
   663	1	 256.395	   -1.13	  104.94
   664	1	 48.9304	   64.41	   116.6
   665	1	  140.92	  162.72	  167.48
   666	1	 356.214	  284.76	   19.08
   667	1	 197.679	  308.49	  125.08
   668	1	  274.01	  314.14	   100.7
   669	1	 501.048	  307.36	    1.06
   670	1	 291.625	  227.13	   33.92
   671	1	 338.599	  328.83	   78.44
   672	1	 217.251	  267.81	   23.32
   673	1	 170.278	   71.19	   29.68
   674	1	 354.256	  236.17	   185.5
   675	1	 463.861	  229.39	     5.3
   676	1	 219.208	   327.7	   196.1
   677	1	 248.567	   87.01	    58.3
   678	1	 174.192	   30.51	   127.2
   679	1	 322.941	   44.07	    6.36
   680	1	 418.845	   124.3	  168.54
   681	1	 205.508	  127.69	  166.42
   682	1	 358.171	  317.53	   96.46
   683	1	 426.673	  291.54	  135.68
   684	1	  72.417	   64.41	   116.6
   685	1	 375.786	     226	  140.98
   686	1	 138.962	   -1.13	   24.38
   687	1	 491.262	  310.75	  204.58
   688	1	 209.422	  175.15	  155.82
   689	1	 313.155	    6.78	  209.88
   690	1	 371.871	  162.72	  178.08
   691	1	 328.813	   83.62	  102.82
   692	1	 381.657	   80.23	   196.1
   693	1	 107.647	   71.19	  139.92
   694	1	 438.417	  250.86	   25.44
   695	1	 454.074	  253.12	   143.1
   696	1	 256.395	   25.99	   81.62
   697	1	 182.021	   50.85	   89.04
   698	1	 103.733	  100.57	  102.82
   699	1	 178.107	  100.57	  177.02
   700	1	   379.7	    6.78	   97.52
   701	1	 197.679	   93.79	  200.34
   702	1	 430.588	  311.88	   25.44
   703	1	 432.545	  240.69	   137.8
   704	1	  309.24	  284.76	   14.84
   705	1	 395.358	   169.5	  114.48
   706	1	 258.353	  314.14	  183.38
   707	1	 289.668	   29.38	    15.9
   708	1	 236.823	  111.87	      53
   709	1	 240.738	   19.21	  151.58
   710	1	 454.074	  232.78	  130.38
   711	1	 381.657	   77.97	   89.04
   712	1	 283.797	  175.15	  162.18
   713	1	 201.593	  120.91	   54.06
   714	1	 381.657	  290.41	  109.18
   715	1	 424.716	  186.45	    84.8
   716	1	   379.7	  178.54	  189.74
   717	1	 497.133	  332.22	  165.36
   718	1	 144.834	   158.2	   94.34
   719	1	 172.235	   54.24	   89.04
   720	1	 307.283	  288.15	      53
   721	1	 342.513	  202.27	  126.14
   722	1	 266.182	   47.46	   23.32
   723	1	 277.925	    22.6	    9.54
   724	1	 207.465	    2.26	  145.22
   725	1	 164.406	    2.26	  140.98
   726	1	 107.647	   -1.13	   111.3
   727	1	 180.064	   76.84	  198.22
   728	1	 326.855	  148.03	  104.94
   729	1	 315.112	   84.75	  120.84
   730	1	 228.994	  132.21	   78.44
   731	1	 162.449	   32.77	  191.86
   732	1	 367.957	   271.2	  165.36
   733	1	  520.62	  325.44	  152.64
   734	1	 389.486	  290.41	  104.94
   735	1	  260.31	  256.51	  115.54
   736	1	 516.705	  253.12	  119.78
   737	1	 103.733	  125.43	  186.56
   738	1	 170.278	  274.59	   80.56
   739	1	 97.8609	   94.92	    84.8
   740	1	 489.304	  223.74	   25.44
   741	1	  140.92	   70.06	  107.06
   742	1	 275.968	  276.85	   132.5
   743	1	 183.978	  230.52	   80.56
   744	1	 557.807	  324.31	  128.26
   745	1	 117.433	   124.3	   111.3
   746	1	  140.92	   47.46	  131.44
   747	1	 383.615	   27.12	  120.84
   748	1	 385.572	  315.27	   116.6
   749	1	 473.647	  239.56	  179.14
   750	1	 348.385	     226	  191.86
   751	1	 170.278	  294.93	   59.36
   752	1	 166.363	   39.55	    26.5
   753	1	 326.855	  134.47	  130.38
   754	1	 538.235	  324.31	   34.98
   755	1	 152.663	   97.18	   24.38
   756	1	 319.026	  254.25	  161.12
   757	1	  189.85	   44.07	  186.56
   758	1	 193.765	   66.67	   100.7
   759	1	 135.048	   80.23	   153.7
   760	1	 13.7005	    5.65	  172.78
   761	1	 307.283	  154.81	   92.22
   762	1	 248.567	   73.45	    37.1
   763	1	 285.754	   135.6	  101.76
   764	1	 46.9732	   49.72	   153.7
   765	1	 346.427	  227.13	  188.68
   766	1	 156.577	  144.64	   51.94
   767	1	 223.123	  298.32	  110.24
   768	1	 348.385	   327.7	  136.74
   769	1	 471.689	  148.03	  119.78
   770	1	 397.315	  193.23	  178.08
   771	1	 412.973	   64.41	  146.28
   772	1	 405.144	  335.61	  142.04
   773	1	  555.85	  320.92	  128.26
   774	1	 291.625	   25.99	    68.9
   775	1	 364.042	  103.96	   62.54
   776	1	  499.09	  200.01	  165.36
   777	1	 526.491	  283.63	  140.98
   778	1	 334.684	  209.05	   81.62
   779	1	 289.668	  171.76	   96.46
   780	1	 456.032	  227.13	    95.4
   781	1	 221.166	  294.93	    21.2
   782	1	 162.449	  222.61	  151.58
   783	1	 275.968	   12.43	  179.14
   784	1	 469.732	  232.78	   24.38
   785	1	 411.016	  314.14	   66.78
   786	1	 199.636	   29.38	   132.5
   787	1	  485.39	  311.88	   76.32
   788	1	 193.765	  256.51	  181.26
   789	1	 428.631	  276.85	   56.18
   790	1	 317.069	  149.16	  207.76
   791	1	 434.502	  318.66	   89.04
   792	1	 438.417	  284.76	  139.92
   793	1	 215.294	   124.3	  193.98
   794	1	 277.925	   135.6	  142.04
   795	1	 356.214	   101.7	   61.48
   796	1	 354.256	   16.95	  125.08
   797	1	 440.374	  195.49	  147.34
   798	1	 518.663	  297.19	    68.9
   799	1	 213.337	  111.87	  199.28
   800	1	 283.797	  172.89	  118.72
   801	1	     366	   23.73	  131.44
   802	1	 473.647	  318.66	   61.48
   803	1	 234.866	    6.78	  207.76
   804	1	  401.23	  315.27	  167.48
   805	1	 285.754	  250.86	   59.36
   806	1	 289.668	     226	  168.54
   807	1	 170.278	   71.19	    74.2
   808	1	 495.176	  215.83	   71.02
   809	1	 548.021	  287.02	   30.74
   810	1	 262.267	    33.9	  135.68
   811	1	  260.31	   98.31	   91.16
   812	1	 133.091	  205.66	    9.54
   813	1	 483.433	  297.19	  187.62
   814	1	 301.411	  257.64	   91.16
   815	1	 193.765	  125.43	  171.72
   816	1	 385.572	  161.59	   83.74
   817	1	 434.502	  149.16	   57.24
   818	1	 275.968	  294.93	   67.84
   819	1	 84.1603	  114.13	   71.02
   820	1	     366	  256.51	  119.78
   821	1	 412.973	  270.07	  187.62
   822	1	  105.69	  108.48	  142.04
   823	1	 103.733	  100.57	   96.46
   824	1	 142.877	  148.03	   87.98
   825	1	 150.706	  120.91	   66.78
   826	1	 315.112	   19.21	   11.66
   827	1	 205.508	  145.77	   137.8
   828	1	 503.005	  324.31	  200.34