ITEM: TIMESTEP
0
ITEM: NUMBER OF ATOMS
1000
ITEM: BOX BOUNDS xy xz yz
-195.722	391.443	195.722
-169.5	169.5	0
-106	106	0
ITEM: ATOMS index type x y z
     0	1	  401.23	   19.21	   56.18
     1	1	 238.781	   237.3	  184.44
     2	1	 195.722	  318.66	    8.48
     3	1	  344.47	    56.5	  149.46
     4	1	 393.401	   37.29	    6.36
     5	1	 129.176	   158.2	    7.42
     6	1	 279.882	  125.43	   99.64
     7	1	 440.374	  141.25	   132.5
     8	1	 37.1871	   12.43	   39.22
     9	1	  90.032	   49.72	    7.42
    10	1	 142.877	  179.67	   65.72
    11	1	 315.112	   57.63	   67.84
    12	1	 389.486	  317.53	    68.9
    13	1	 125.262	   203.4	  144.16
    14	1	 195.722	   97.18	  157.94
    15	1	 362.085	  195.49	  104.94
    16	1	 452.117	  281.37	    84.8
    17	1	 416.887	  240.69	   148.4
    18	1	 279.882	  107.35	   11.66
    19	1	 416.887	  236.17	   13.78
    20	1	 326.855	   77.97	   27.56
    21	1	 54.8021	   49.72	   100.7
    22	1	 463.861	  254.25	  197.16
    23	1	 432.545	  120.91	   185.5
    24	1	  330.77	  229.39	  208.82
    25	1	  450.16	  171.76	  208.82
    26	1	 115.476	   37.29	    63.6
    27	1	 352.299	  266.68	     5.3
    28	1	 338.599	   -1.13	  155.82
    29	1	 428.631	  310.75	   153.7
    30	1	 528.449	  291.54	   12.72
    31	1	 305.326	  325.44	  122.96
    32	1	 144.834	  131.08	  115.54
    33	1	 283.797	  267.81	     106
    34	1	 348.385	   54.24	  125.08
    35	1	 70.4598	  115.26	   12.72
    36	1	 332.727	   49.72	   54.06
    37	1	  154.62	  222.61	   81.62
    38	1	 350.342	   30.51	  118.72
    39	1	  119.39	   30.51	   12.72
    40	1	 187.893	  196.62	  122.96
    41	1	 268.139	   32.77	   81.62
    42	1	 332.727	    2.26	  145.22
    43	1	 197.679	  276.85	   92.22
    44	1	  330.77	  202.27	  126.14
    45	1	 483.433	  213.57	    10.6
    46	1	 187.893	  151.42	  104.94
    47	1	 266.182	   169.5	      53
    48	1	 377.743	   80.23	   18.02
    49	1	 287.711	  276.85	  117.66
    50	1	 293.583	  176.28	  188.68
    51	1	 299.454	  290.41	    47.7
    52	1	 467.775	  283.63	   185.5
    53	1	 375.786	   203.4	   19.08
    54	1	 228.994	  179.67	    21.2
    55	1	 528.449	  277.98	    10.6
    56	1	 197.679	  290.41	   83.74
    57	1	 277.925	  311.88	  114.48
    58	1	 501.048	  223.74	     106
    59	1	 291.625	  168.37	   39.22
    60	1	   379.7	    9.04	    15.9
    61	1	 405.144	   84.75	  175.96
    62	1	 138.962	  200.01	  173.84
    63	1	 299.454	  168.37	   77.38
    64	1	 510.834	  249.73	   24.38
    65	1	 170.278	  227.13	  203.52
    66	1	 320.984	   70.06	   30.74
    67	1	 228.994	  315.27	  133.56
    68	1	 25.4438	   32.77	   185.5
    69	1	 33.2727	   12.43	   83.74
    70	1	 115.476	   19.21	  160.06
    71	1	  154.62	  166.11	  209.88
    72	1	  274.01	  131.08	  204.58
    73	1	 407.101	  115.26	    63.6
    74	1	 481.475	  219.22	  115.54
    75	1	 405.144	  138.99	  131.44
    76	1	 320.984	  117.52	   22.26
    77	1	 375.786	   20.34	  209.88
    78	1	 111.561	   30.51	  199.28
    79	1	 367.957	   237.3	   82.68
    80	1	 209.422	  229.39	  166.42
    81	1	 551.935	  318.66	  133.56
    82	1	  309.24	  277.98	   99.64
    83	1	 101.775	   83.62	  198.22
    84	1	 473.647	  155.94	   80.56
    85	1	 117.433	   63.28	   164.3
    86	1	 416.887	  138.99	  184.44
    87	1	 131.134	  159.33	   116.6
    88	1	 303.369	    5.65	   73.14
    89	1	 86.1176	   40.68	  146.28
    90	1	 352.299	  318.66	   69.96
    91	1	 66.5454	   36.16	   30.74
    92	1	 137.005	   47.46	   44.52
    93	1	  140.92	   36.16	   75.26
    94	1	 315.112	  202.27	  200.34
    95	1	 109.604	  178.54	   153.7
    96	1	 279.882	  105.09	  175.96
    97	1	 465.818	  277.98	   57.24
    98	1	 182.021	   91.53	   93.28
    99	1	  344.47	   135.6	   78.44
   100	1	 283.797	  303.97	  128.26
   101	1	 338.599	  141.25	  149.46
   102	1	 332.727	  325.44	  133.56
   103	1	 293.583	  253.12	   111.3
   104	1	 371.871	  178.54	    37.1
   105	1	 336.641	  128.82	   201.4
   106	1	 250.524	  142.38	   67.84
   107	1	 434.502	  162.72	   16.96
   108	1	 172.235	  257.64	     159
   109	1	 197.679	  132.21	   137.8
   110	1	 256.395	  181.93	  162.18
   111	1	 420.802	  288.15	    31.8
   112	1	 326.855	   30.51	  112.36
   113	1	 432.545	  227.13	    95.4
   114	1	 352.299	  253.12	   111.3
   115	1	 504.962	  311.88	   57.24
   116	1	 207.465	   169.5	   12.72
   117	1	 328.813	    22.6	   45.58
   118	1	 107.647	   71.19	  108.12
   119	1	 43.0588	    22.6	   22.26
   120	1	 557.807	  331.09	  202.46
   121	1	  176.15	    56.5	   54.06
   122	1	 389.486	  107.35	   83.74
   123	1	 293.583	  178.54	   132.5
   124	1	 510.834	  267.81	   89.04
   125	1	 50.8877	   27.12	   72.08
   126	1	 242.695	  122.04	   25.44
   127	1	 207.465	  216.96	       0
   128	1	  105.69	   94.92	  154.76
   129	1	 125.262	   27.12	   57.24
   130	1	 393.401	  249.73	   94.34
   131	1	 207.465	   74.58	   55.12
   132	1	 405.144	  276.85	   66.78
   133	1	 526.491	  267.81	  131.44
   134	1	 432.545	  276.85	  208.82
   135	1	 377.743	  193.23	   29.68
   136	1	 252.481	  188.71	   34.98
   137	1	 219.208	  131.08	   18.02
   138	1	 209.422	  127.69	    90.1
   139	1	 362.085	   30.51	  165.36
   140	1	 138.962	  125.43	  110.24
   141	1	 217.251	   77.97	    31.8
   142	1	 324.898	   237.3	     106
   143	1	 315.112	  328.83	    31.8
   144	1	 320.984	  291.54	   44.52
   145	1	 403.187	  108.48	     106
   146	1	 107.647	  166.11	  131.44
   147	1	 236.823	  215.83	  168.54
   148	1	 207.465	  149.16	   82.68
   149	1	 185.936	   12.43	   83.74
   150	1	 424.716	  317.53	   41.34
   151	1	 270.096	  183.06	   148.4
   152	1	 232.909	  152.55	   25.44
   153	1	 360.128	  155.94	  131.44
   154	1	 311.198	  125.43	  112.36
   155	1	 416.887	   77.97	   61.48
   156	1	 162.449	  141.25	  117.66
   157	1	 424.716	  303.97	   18.02
   158	1	 317.069	    9.04	    58.3
   159	1	 74.3743	   83.62	  162.18
   160	1	 387.529	    33.9	  205.64
   161	1	 444.288	  328.83	   19.08
   162	1	 438.417	   101.7	   33.92
   163	1	 219.208	  250.86	   91.16
   164	1	 463.861	  242.95	     5.3
   165	1	 244.652	  227.13	   82.68
   166	1	 117.433	  131.08	   206.7
   167	1	 367.957	    22.6	  151.58
   168	1	 185.936	  276.85	     5.3
   169	1	 389.486	  263.29	    26.5
   170	1	 407.101	  117.52	   54.06
   171	1	  295.54	  107.35	   49.82
   172	1	 412.973	  118.65	   72.08
   173	1	 575.422	  334.48	  151.58
   174	1	 418.845	  291.54	  154.76
   175	1	 364.042	   192.1	   41.34
   176	1	 70.4598	   54.24	  122.96
   177	1	 88.0748	    3.39	  175.96
   178	1	 430.588	   259.9	  179.14
   179	1	 70.4598	   97.18	  107.06
   180	1	 467.775	  240.69	  144.16
   181	1	 74.3743	  122.04	  203.52
   182	1	 307.283	  195.49	  170.66
   183	1	 418.845	  164.98	  191.86
   184	1	 473.647	  244.08	   180.2
   185	1	 152.663	  198.88	   77.38
   186	1	 313.155	  230.52	   137.8
   187	1	  330.77	  308.49	  192.92
   188	1	 395.358	   124.3	   64.66
   189	1	 546.064	  303.97	  200.34
   190	1	 138.962	   71.19	    84.8
   191	1	 342.513	  206.79	   33.92
   192	1	  154.62	   37.29	   82.68
   193	1	 219.208	       0	  146.28
   194	1	  176.15	  230.52	  192.92
   195	1	 270.096	   63.28	   96.46
   196	1	  105.69	   49.72	   30.74
   197	1	 317.069	   305.1	  154.76
   198	1	 459.946	  179.67	  165.36
   199	1	 146.791	   59.89	   111.3
   200	1	 95.9037	   50.85	   55.12
   201	1	  414.93	   101.7	   72.08
   202	1	 234.866	  264.42	  173.84
   203	1	 168.321	   74.58	  152.64
   204	1	 510.834	  254.25	  152.64
   205	1	 395.358	  162.72	   55.12
   206	1	 166.363	  166.11	   50.88
   207	1	 514.748	  236.17	  145.22
   208	1	 475.604	  200.01	   29.68
   209	1	 573.465	  331.09	  128.26
   210	1	  401.23	  120.91	   60.42
   211	1	 311.198	   57.63	       0
   212	1	 221.166	   10.17	   14.84
   213	1	 354.256	  290.41	  202.46
   214	1	 436.459	  188.71	  162.18
   215	1	 342.513	   19.21	    68.9
   216	1	 297.497	   40.68	   78.44
   217	1	 322.941	   87.01	   24.38
   218	1	 248.567	  261.03	  135.68
   219	1	 334.684	  134.47	   75.26
   220	1	 501.048	  198.88	   22.26
   221	1	 213.337	  322.05	  114.48
   222	1	 307.283	   91.53	   44.52
   223	1	 479.518	  215.83	  136.74
   224	1	 142.877	  215.83	   34.98
   225	1	 207.465	   293.8	  104.94
   226	1	 170.278	  254.25	   67.84
   227	1	 350.342	   25.99	   81.62
   228	1	 434.502	  142.38	  184.44
   229	1	 367.957	  189.84	  205.64
   230	1	  119.39	  188.71	  166.42
   231	1	 137.005	   36.16	   196.1
   232	1	 56.7593	   53.11	   24.38
   233	1	 234.866	   29.38	  140.98
   234	1	 463.861	  227.13	   76.32
   235	1	 324.898	  103.96	  138.86
   236	1	 230.952	  151.42	  138.86
   237	1	 217.251	  175.15	  102.82
   238	1	 113.519	  115.26	   89.04
   239	1	 272.053	  303.97	   132.5
   240	1	  176.15	   47.46	  125.08
   241	1	 399.272	  250.86	   27.56
   242	1	 268.139	  297.19	   22.26
   243	1	 195.722	   29.38	  147.34
   244	1	 275.968	  118.65	  161.12
   245	1	 297.497	    9.04	  191.86
   246	1	 426.673	  137.86	     5.3
   247	1	 193.765	   16.95	   16.96
   248	1	 426.673	  212.44	   98.58
   249	1	 201.593	  310.75	   174.9
   250	1	 109.604	   88.14	  161.12
   251	1	  154.62	  134.47	  155.82
   252	1	 150.706	  120.91	  191.86
   253	1	 397.315	   53.11	   20.14
   254	1	 275.968	  303.97	  157.94
   255	1	 350.342	  294.93	  197.16
   256	1	 440.374	  222.61	  113.42
   257	1	 479.518	  172.89	    2.12
   258	1	 270.096	  183.06	   127.2
   259	1	 185.936	  161.59	   43.46
   260	1	 205.508	    5.65	   174.9
   261	1	 508.877	  230.52	  108.12
   262	1	 459.946	  175.15	   75.26
   263	1	 328.813	   27.12	   137.8
   264	1	 252.481	  159.33	  203.52
   265	1	 307.283	  200.01	   16.96
   266	1	 86.1176	   74.58	   40.28
   267	1	     366	  281.37	  192.92
   268	1	 375.786	  273.46	   92.22
   269	1	 180.064	   305.1	   91.16
   270	1	 123.305	    3.39	   89.04
   271	1	 479.518	  215.83	   64.66
   272	1	 303.369	  247.47	  110.24
   273	1	 389.486	  114.13	    68.9
   274	1	 346.427	  270.07	  202.46
   275	1	 178.107	   46.33	  119.78
   276	1	 291.625	   30.51	   190.8
   277	1	 467.775	  267.81	    2.12
   278	1	 129.176	  142.38	   46.64
   279	1	 99.8181	   77.97	  110.24
   280	1	 178.107	  195.49	  104.94
   281	1	 256.395	  308.49	   57.24
   282	1	 305.326	    2.26	   98.58
   283	1	 432.545	  335.61	   29.68
   284	1	 283.797	  111.87	   48.76
   285	1	 166.363	  120.91	   32.86
   286	1	  119.39	  141.25	   54.06
   287	1	 430.588	  250.86	   59.36
   288	1	 362.085	  202.27	  168.54
   289	1	 307.283	  317.53	   132.5
   290	1	 375.786	   135.6	   89.04
   291	1	 193.765	   57.63	  139.92
   292	1	 457.989	  232.78	  166.42
   293	1	 297.497	   15.82	   56.18
   294	1	 207.465	   42.94	    68.9
   295	1	     366	  179.67	   80.56
   296	1	 97.8609	   169.5	  192.92
   297	1	 319.026	   39.55	  145.22
   298	1	 127.219	  193.23	   99.64
   299	1	 285.754	   29.38	  147.34
   300	1	 50.8877	   40.68	   169.6
   301	1	 440.374	  181.93	   121.9
   302	1	 31.3155	   15.82	   34.98
   303	1	 162.449	  175.15	  157.94
   304	1	 428.631	  335.61	  118.72
   305	1	 409.058	  154.81	  179.14
   306	1	 299.454	  193.23	    63.6
   307	1	 461.903	  334.48	  210.94
   308	1	 191.807	   259.9	   28.62
   309	1	 573.465	  335.61	  142.04
   310	1	 461.903	  325.44	    31.8
   311	1	 454.074	   192.1	   34.98
   312	1	 448.203	  322.05	  165.36
   313	1	 201.593	   16.95	  152.64
   314	1	 324.898	  151.42	    90.1
   315	1	 103.733	  145.77	  182.32
   316	1	 238.781	   94.92	    8.48
   317	1	     366	   87.01	  104.94
   318	1	 209.422	  297.19	  140.98
   319	1	 205.508	   66.67	   153.7
   320	1	 1.95722	    3.39	  188.68
   321	1	 201.593	  125.43	  186.56
   322	1	 428.631	  247.47	   116.6
   323	1	 180.064	   305.1	   16.96
   324	1	 111.561	   53.11	  107.06
   325	1	 436.459	  141.25	    79.5
   326	1	  176.15	  115.26	  156.88
   327	1	 338.599	   25.99	  183.38
   328	1	 416.887	  227.13	   33.92
   329	1	 146.791	  120.91	    58.3
   330	1	 328.813	  291.54	    6.36
   331	1	 405.144	  220.35	  197.16
   332	1	 138.962	  145.77	   76.32
   333	1	 230.952	  183.06	  144.16
   334	1	  225.08	   59.89	  128.26
   335	1	 440.374	  125.43	   93.28
   336	1	 385.572	  213.57	  156.88
   337	1	 234.866	   40.68	    8.48
   338	1	 41.1016	   53.11	   185.5
   339	1	 354.256	   87.01	  162.18
   340	1	 142.877	   77.97	  125.08
   341	1	  90.032	   97.18	  179.14
   342	1	 246.609	   124.3	   87.98
   343	1	 272.053	  154.81	  147.34
   344	1	 422.759	  185.32	   73.14
   345	1	 495.176	  270.07	  130.38
   346	1	 150.706	   93.79	  160.06
   347	1	  45.016	   39.55	  145.22
   348	1	 479.518	  202.27	   56.18
   349	1	  569.55	  335.61	   27.56
   350	1	 407.101	   76.84	    90.1
   351	1	 182.021	  213.57	  199.28
   352	1	 144.834	   124.3	  145.22
   353	1	 111.561	   91.53	  195.04
   354	1	 211.379	   36.16	  130.38
   355	1	 279.882	   53.11	   51.94
   356	1	 342.513	  209.05	   34.98
   357	1	 324.898	    56.5	   54.06
   358	1	 287.711	  179.67	    31.8
   359	1	 377.743	  100.57	   73.14
   360	1	 373.829	   -1.13	   196.1
   361	1	 377.743	  209.05	   121.9
   362	1	 162.449	   23.73	   50.88
   363	1	 299.454	  236.17	   143.1
   364	1	 291.625	  308.49	   76.32
   365	1	 215.294	   40.68	  199.28
   366	1	  62.631	   29.38	  193.98
   367	1	 526.491	  240.69	  175.96
   368	1	 103.733	   46.33	  179.14
   369	1	   379.7	  334.48	  210.94
   370	1	  225.08	  134.47	   51.94
   371	1	 362.085	   19.21	   92.22
   372	1	  189.85	   64.41	  197.16
   373	1	 244.652	   71.19	   57.24
   374	1	  330.77	  152.55	   25.44
   375	1	 244.652	  166.11	  207.76
   376	1	 409.058	   37.29	  125.08
   377	1	  90.032	   42.94	   43.46
   378	1	 46.9732	   70.06	   28.62
   379	1	 291.625	   23.73	  199.28
   380	1	 266.182	   169.5	  205.64
   381	1	 516.705	  318.66	  101.76
   382	1	 48.9304	   19.21	   87.98
   383	1	 403.187	   327.7	    68.9
   384	1	 275.968	  206.79	  182.32
   385	1	 317.069	    2.26	    15.9
   386	1	 317.069	  223.74	    31.8
   387	1	 483.433	  179.67	  173.84
   388	1	 248.567	  145.77	   29.68
   389	1	 315.112	  301.71	   33.92
   390	1	 463.861	  270.07	    47.7
   391	1	 168.321	  122.04	    74.2
   392	1	 428.631	  105.09	   72.08
   393	1	  344.47	   13.56	  188.68
   394	1	 358.171	    5.65	    3.18
   395	1	  274.01	   271.2	   78.44
   396	1	 150.706	    3.39	   38.16
   397	1	 264.224	  335.61	  114.48
   398	1	 232.909	   73.45	   41.34
   399	1	 242.695	  128.82	  188.68
   400	1	 250.524	  122.04	   86.92
   401	1	 426.673	  320.92	    90.1
   402	1	 279.882	  107.35	   60.42
   403	1	 287.711	  229.39	  200.34
   404	1	 350.342	   46.33	  166.42
   405	1	 375.786	  291.54	  156.88
   406	1	  154.62	  242.95	   49.82
   407	1	 352.299	   135.6	   127.2
   408	1	 131.134	  148.03	   18.02
   409	1	  274.01	  307.36	  208.82
   410	1	  401.23	  181.93	  157.94
   411	1	 152.663	   61.02	    8.48
   412	1	 334.684	  166.11	   48.76
   413	1	 178.107	   32.77	  187.62
   414	1	 291.625	  215.83	   49.82
   415	1	 234.866	  230.52	   19.08
   416	1	 399.272	  128.82	  144.16
   417	1	 289.668	  250.86	    63.6
   418	1	 299.454	  240.69	   72.08
   419	1	 148.749	  108.48	   86.92
   420	1	 340.556	  198.88	   75.26
   421	1	 166.363	   32.77	   60.42
   422	1	 199.636	   70.06	    7.42
   423	1	 227.037	   29.38	  147.34
   424	1	 219.208	  205.66	  151.58
   425	1	 548.021	  273.46	  208.82
   426	1	 223.123	  250.86	   46.64
   427	1	 432.545	  120.91	    7.42
   428	1	 481.475	   237.3	      53
   429	1	 95.9037	   64.41	   76.32
   430	1	 242.695	  332.22	   55.12
   431	1	 207.465	  307.36	   132.5
   432	1	 146.791	  188.71	   13.78
   433	1	 223.123	  176.28	   44.52
   434	1	 338.599	   23.73	   59.36
   435	1	 131.134	   98.31	  152.64
   436	1	 356.214	  291.54	   72.08
   437	1	 121.347	    56.5	   43.46
   438	1	 524.534	  232.78	   13.78
   439	1	 125.262	   81.36	   76.32
   440	1	  485.39	  257.64	   55.12
   441	1	 146.791	  215.83	  191.86
   442	1	 182.021	  229.39	    79.5
   443	1	 399.272	   88.14	  182.32
   444	1	 409.058	   73.45	  126.14
   445	1	 191.807	  212.44	    79.5
   446	1	  295.54	   91.53	  199.28
   447	1	 303.369	  175.15	   85.86
   448	1	 254.438	  334.48	  124.02
   449	1	 74.3743	   83.62	  191.86
   450	1	 465.818	  273.46	  170.66
   451	1	 125.262	  189.84	  182.32
   452	1	  450.16	   169.5	    4.24
   453	1	 381.657	   59.89	   54.06
   454	1	 88.0748	  100.57	  119.78
   455	1	 315.112	  111.87	  192.92
   456	1	 281.839	  144.64	   206.7
   457	1	 268.139	  114.13	  102.82
   458	1	 137.005	   54.24	   38.16
   459	1	 252.481	  188.71	  162.18
   460	1	 162.449	  154.81	   56.18
   461	1	 516.705	  284.76	   33.92
   462	1	 150.706	  229.39	   66.78
   463	1	 213.337	  107.35	  147.34
   464	1	  274.01	  266.68	  119.78
   465	1	 242.695	  320.92	   51.94
   466	1	 426.673	  149.16	  142.04
   467	1	  176.15	   97.18	    7.42
   468	1	 305.326	   42.94	   56.18
   469	1	 266.182	  210.18	  163.24
   470	1	 307.283	   46.33	    58.3
   471	1	 164.406	   49.72	  202.46
   472	1	 503.005	  328.83	  142.04
   473	1	 457.989	  232.78	   28.62
   474	1	 74.3743	   36.16	   49.82
   475	1	 84.1603	  134.47	    26.5
   476	1	 328.813	  198.88	   32.86
   477	1	 454.074	  318.66	  142.04
   478	1	 203.551	  219.22	    68.9
   479	1	  105.69	   47.46	   86.92
   480	1	 80.2459	   23.73	  122.96
   481	1	 95.9037	  120.91	    3.18
   482	1	 240.738	   53.11	   13.78
   483	1	 183.978	  122.04	  152.64
   484	1	 422.759	  264.42	  195.04
   485	1	 103.733	   93.79	   39.22
   486	1	  260.31	  141.25	  170.66
   487	1	   379.7	    33.9	   29.68
   488	1	 256.395	  172.89	   14.84
   489	1	 448.203	  315.27	   67.84
   490	1	 270.096	   15.82	   71.02
   491	1	 491.262	  181.93	    68.9
   492	1	 148.749	   94.92	   127.2
   493	1	 440.374	  267.81	   137.8
   494	1	 195.722	  314.14	    15.9
   495	1	 219.208	  300.58	   87.98
   496	1	 76.3315	  120.91	    37.1
   497	1	 504.962	  291.54	  199.28
   498	1	 538.235	  315.27	  129.32
   499	1	 228.994	  242.95	  155.82
   500	1	 230.952	  244.08	   97.52
   501	1	 135.048	  222.61	  107.06
   502	1	 58.7165	   40.68	   82.68
   503	1	 477.561	  171.76	   45.58
   504	1	 342.513	  242.95	    1.06
   505	1	 221.166	  322.05	  165.36
   506	1	 185.936	  114.13	   30.74
   507	1	     366	  168.37	  115.54
   508	1	 152.663	  149.16	   82.68
   509	1	 575.422	   327.7	   28.62
   510	1	 88.0748	  107.35	   185.5
   511	1	 289.668	  298.32	   91.16
   512	1	 385.572	  281.37	   65.72
   513	1	 350.342	   87.01	  109.18
   514	1	  119.39	  107.35	  113.42
   515	1	  105.69	   94.92	   25.44
   516	1	  330.77	  310.75	  210.94
   517	1	 97.8609	   101.7	  129.32
   518	1	  485.39	   169.5	    4.24
   519	1	 254.438	  230.52	  186.56
   520	1	 320.984	   29.38	  145.22
   521	1	 381.657	  125.43	   72.08
   522	1	 328.813	  210.18	   190.8
   523	1	 262.267	  128.82	    21.2
   524	1	 209.422	  154.81	  162.18
   525	1	 256.395	  154.81	   87.98
   526	1	  225.08	   23.73	   201.4
   527	1	 465.818	  205.66	    68.9
   528	1	 328.813	  250.86	  163.24
   529	1	 272.053	   73.45	  149.46
   530	1	 313.155	   40.68	   27.56
   531	1	 448.203	  297.19	   77.38
   532	1	 497.133	  210.18	   61.48
   533	1	 457.989	  189.84	    74.2
   534	1	  154.62	  215.83	    90.1
   535	1	 183.978	   169.5	  188.68
   536	1	 201.593	  315.27	  110.24
   537	1	 264.224	   46.33	   153.7
   538	1	 459.946	  254.25	  110.24
   539	1	 213.337	  209.05	  170.66
   540	1	  401.23	   25.99	  107.06
   541	1	 385.572	  247.47	  165.36
   542	1	 137.005	    33.9	   201.4
   543	1	 424.716	  186.45	  133.56
   544	1	 342.513	   19.21	  200.34
   545	1	 352.299	  103.96	    15.9
   546	1	  485.39	  189.84	    6.36
   547	1	  154.62	   32.77	  140.98
   548	1	 338.599	  236.17	   196.1
   549	1	 467.775	  229.39	  107.06
   550	1	 305.326	  155.94	  167.48
   551	1	 444.288	  206.79	  205.64
   552	1	 332.727	       0	    10.6
   553	1	 324.898	   101.7	   72.08
   554	1	 78.2887	   27.12	  156.88
   555	1	 221.166	  213.57	   36.04
   556	1	 469.732	  280.24	  113.42
   557	1	 387.529	  151.42	   49.82
   558	1	 137.005	    6.78	  129.32
   559	1	 262.267	   76.84	   92.22
   560	1	 101.775	  128.82	  108.12
   561	1	 125.262	  164.98	   196.1
   562	1	 146.791	   59.89	  130.38
   563	1	 275.968	  186.45	  167.48
   564	1	 381.657	   23.73	   38.16
   565	1	  72.417	   77.97	   67.84
   566	1	 311.198	  213.57	  118.72
   567	1	 283.797	  215.83	   132.5
   568	1	 279.882	  206.79	  110.24
   569	1	  274.01	   42.94	   54.06
   570	1	 358.171	  240.69	   80.56
   571	1	 307.283	  335.61	   25.44
   572	1	 270.096	  110.74	   96.46
   573	1	 332.727	  291.54	    21.2
   574	1	 358.171	  324.31	   185.5
   575	1	 348.385	  183.06	     106
   576	1	 123.305	   77.97	   72.08
   577	1	 434.502	  300.58	  130.38
   578	1	 168.321	  219.22	   30.74
   579	1	 178.107	  186.45	    4.24
   580	1	 129.176	   74.58	  171.72
   581	1	 528.449	  287.02	   24.38
   582	1	 340.556	    90.4	   34.98
   583	1	 487.347	  267.81	   72.08
   584	1	 373.829	  331.09	  200.34
   585	1	 252.481	  229.39	    58.3
   586	1	 135.048	   46.33	  170.66
   587	1	 185.936	  138.99	   55.12
   588	1	 144.834	  198.88	  134.62
   589	1	 307.283	  261.03	   169.6
   590	1	 389.486	  288.15	       0
   591	1	 111.561	  193.23	   180.2
   592	1	  154.62	  127.69	   96.46
   593	1	 227.037	  280.24	   73.14
   594	1	 416.887	  134.47	   51.94
   595	1	 332.727	  239.56	  134.62
   596	1	 493.219	  273.46	  177.02
   597	1	 399.272	    56.5	  155.82
   598	1	 133.091	   54.24	   46.64
   599	1	 205.508	  152.55	  165.36
   600	1	 135.048	  111.87	   201.4
   601	1	 422.759	  287.02	  155.82
   602	1	 266.182	  244.08	    95.4
   603	1	 228.994	  148.03	  151.58
   604	1	 493.219	  216.96	   29.68
   605	1	 411.016	  232.78	  151.58
   606	1	 385.572	   84.75	  195.04
   607	1	 99.8181	  148.03	   41.34
   608	1	 346.427	  281.37	   55.12
   609	1	 117.433	   88.14	   55.12
   610	1	 203.551	  210.18	  154.76
   611	1	 166.363	   19.21	  109.18
   612	1	  260.31	   16.95	   55.12
   613	1	 315.112	  220.35	   148.4
   614	1	 182.021	    3.39	  122.96
   615	1	 354.256	  188.71	   153.7
   616	1	 133.091	  196.62	  142.04
   617	1	 373.829	  181.93	  168.54
   618	1	 211.379	  284.76	    4.24
   619	1	 60.6737	    5.65	  191.86
   620	1	 205.508	  154.81	   30.74
   621	1	 354.256	  202.27	  204.58
   622	1	  401.23	  247.47	  182.32
   623	1	 46.9732	   63.28	  147.34
   624	1	 297.497	   49.72	  130.38
   625	1	 407.101	  219.22	   206.7
   626	1	 348.385	  307.36	  126.14
   627	1	 579.336	  334.48	  179.14
   628	1	 248.567	  202.27	  177.02
   629	1	  154.62	   80.23	    37.1
   630	1	 109.604	  115.26	   93.28
   631	1	 238.781	  210.18	  178.08
   632	1	 326.855	   93.79	  151.58
   633	1	 287.711	   30.51	  135.68
   634	1	  534.32	  267.81	   44.52
   635	1	 426.673	  151.42	    1.06
   636	1	  414.93	   203.4	   46.64
   637	1	 352.299	  284.76	  114.48
   638	1	 403.187	  149.16	  122.96
   639	1	 227.037	  151.42	    79.5
   640	1	 426.673	  250.86	  195.04
   641	1	  274.01	  257.64	    74.2
   642	1	 144.834	    9.04	  177.02
   643	1	 293.583	  164.98	    7.42
   644	1	 185.936	   84.75	   50.88
   645	1	 256.395	  175.15	  202.46
   646	1	 454.074	  216.96	   57.24
   647	1	 180.064	    6.78	   127.2
   648	1	 201.593	  168.37	   56.18
   649	1	 244.652	  220.35	  112.36
   650	1	 29.3583	   46.33	  166.42
   651	1	 301.411	  142.38	  178.08
   652	1	 416.887	  202.27	   41.34
   653	1	  499.09	  274.59	   25.44
   654	1	 418.845	  122.04	    42.4
   655	1	 301.411	  196.62	      53
   656	1	  140.92	  205.66	   32.86
   657	1	     366	  107.35	   143.1
   658	1	  295.54	  227.13	  178.08
   659	1	 95.9037	   10.17	   93.28
   660	1	 144.834	    2.26	    58.3
   661	1	 338.599	  254.25	   29.68
   662	1	 532.363	  277.98	   148.4
   663	1	 197.679	  297.19	  198.22
   664	1	 129.176	  122.04	    4.24
   665	1	 315.112	  263.29	   83.74
   666	1	  17.615	   -1.13	  128.26
   667	1	 203.551	  189.84	   14.84
   668	1	 293.583	  250.86	  101.76
   669	1	 399.272	  115.26	  103.88
   670	1	 183.978	  137.86	   43.46
   671	1	 311.198	  148.03	     5.3
   672	1	 495.176	  213.57	  192.92
   673	1	 383.615	  110.74	  179.14
   674	1	 522.577	  310.75	   34.98
   675	1	  295.54	  209.05	   83.74
   676	1	 211.379	  291.54	  186.56
   677	1	  154.62	  206.79	  165.36
   678	1	 227.037	  219.22	   92.22
   679	1	 440.374	  132.21	   78.44
   680	1	 477.561	  287.02	   13.78
   681	1	  414.93	  246.34	  168.54
   682	1	 227.037	  108.48	   180.2
   683	1	 197.679	  132.21	  139.92
   684	1	 240.738	  148.03	    15.9
   685	1	 117.433	  151.42	   132.5
   686	1	 432.545	  276.85	    58.3
   687	1	 135.048	   87.01	  145.22
   688	1	 277.925	  137.86	  187.62
   689	1	 430.588	  216.96	  207.76
   690	1	 332.727	   101.7	  122.96
   691	1	 463.861	  267.81	   16.96
   692	1	 548.021	   293.8	   62.54
   693	1	 395.358	    56.5	  128.26
   694	1	 91.9892	   57.63	    42.4
   695	1	 54.8021	    9.04	    15.9
   696	1	 338.599	   50.85	    84.8
   697	1	 252.481	   23.73	  186.56
   698	1	 465.818	  325.44	  108.12
   699	1	 440.374	  134.47	  202.46
   700	1	 383.615	  216.96	  154.76
   701	1	 389.486	   80.23	  193.98
   702	1	 80.2459	   46.33	   24.38
   703	1	 248.567	   91.53	  110.24
   704	1	 279.882	   23.73	   55.12
   705	1	 170.278	  134.47	   71.02
   706	1	 266.182	   70.06	   20.14
   707	1	 240.738	  322.05	    2.12
   708	1	 301.411	  171.76	  204.58
   709	1	 88.0748	   84.75	  110.24
   710	1	 430.588	  210.18	    10.6
   711	1	 315.112	  215.83	    79.5
   712	1	 549.978	  331.09	  130.38
   713	1	 183.978	  131.08	  179.14
   714	1	 201.593	  181.93	  145.22
   715	1	  401.23	  172.89	    84.8
   716	1	 336.641	  332.22	  118.72
   717	1	 133.091	    67.8	  129.32
   718	1	 250.524	   158.2	  115.54
   719	1	 150.706	   50.85	  188.68
   720	1	 454.074	  244.08	   91.16
   721	1	 221.166	  274.59	  129.32
   722	1	 438.417	   327.7	  189.74
   723	1	 272.053	  254.25	  103.88
   724	1	 367.957	   83.62	  113.42
   725	1	 432.545	  270.07	  155.82
   726	1	 350.342	  249.73	    47.7
   727	1	 129.176	  137.86	  170.66
   728	1	 207.465	  280.24	   32.86
   729	1	 221.166	  114.13	  187.62
   730	1	 358.171	  120.91	   185.5
   731	1	 285.754	  300.58	   83.74
   732	1	 250.524	  232.78	   18.02
   733	1	  520.62	  291.54	  195.04
   734	1	 283.797	  261.03	  120.84
   735	1	 133.091	  176.28	     106
   736	1	 64.5882	   87.01	   83.74
   737	1	 350.342	  324.31	  170.66
   738	1	 46.9732	   76.84	   28.62
   739	1	 144.834	  244.08	   25.44
   740	1	 125.262	   54.24	   89.04
   741	1	 197.679	  220.35	   180.2
   742	1	 409.058	  294.93	   29.68
   743	1	 50.8877	    6.78	  209.88
   744	1	  260.31	  297.19	  107.06
   745	1	 219.208	  115.26	    2.12
   746	1	 514.748	  294.93	  144.16
   747	1	 297.497	   124.3	   49.82
   748	1	 297.497	  117.52	   83.74
   749	1	 350.342	  229.39	    7.42
   750	1	 432.545	  148.03	  113.42
   751	1	 289.668	  325.44	   82.68
   752	1	 548.021	  273.46	  157.94
   753	1	  450.16	   169.5	  173.84
   754	1	 299.454	  125.43	  184.44
   755	1	 215.294	   36.16	   87.98
   756	1	 174.192	   91.53	  186.56
   757	1	 268.139	  249.73	   20.14
   758	1	 185.936	  242.95	  119.78
   759	1	 281.839	  108.48	      53
   760	1	 256.395	    3.39	   38.16
   761	1	 272.053	  297.19	   71.02
   762	1	 46.9732	    67.8	   19.08
   763	1	 211.379	  117.52	  107.06
   764	1	 387.529	  103.96	    47.7
   765	1	 221.166	  290.41	   66.78
   766	1	 113.519	   15.82	    26.5
   767	1	 195.722	  210.18	   36.04
   768	1	 293.583	   192.1	   66.78
   769	1	 416.887	  233.91	   46.64
   770	1	 209.422	   80.23	   143.1
   771	1	 223.123	   61.02	  120.84
   772	1	  295.54	   59.89	  198.22
   773	1	 289.668	  131.08	  151.58
   774	1	 223.123	  253.12	  136.74
   775	1	 395.358	   97.18	   32.86
   776	1	 334.684	  283.63	   75.26
   777	1	 183.978	  253.12	  179.14
   778	1	 315.112	   50.85	    6.36
   779	1	 393.401	  148.03	  198.22
   780	1	 270.096	  219.22	  140.98
   781	1	 385.572	   30.51	  195.04
   782	1	  225.08	   98.31	   38.16
   783	1	 258.353	  189.84	  188.68
   784	1	 178.107	   32.77	  200.34
   785	1	 307.283	   37.29	     106
   786	1	  295.54	  148.03	   22.26
   787	1	 407.101	  110.74	  157.94
   788	1	 319.026	  132.21	   27.56
   789	1	 203.551	  250.86	  135.68
   790	1	 250.524	  332.22	   36.04
   791	1	 291.625	  159.33	   25.44
   792	1	 168.321	  266.68	   43.46
   793	1	 551.935	  320.92	  187.62
   794	1	 530.406	  263.29	   83.74
   795	1	  176.15	   192.1	  140.98
   796	1	 369.914	   50.85	  167.48
   797	1	 360.128	   63.28	   94.34
   798	1	 446.246	  115.26	  209.88
   799	1	 31.3155	   54.24	       0
   800	1	  295.54	  240.69	   36.04
   801	1	 281.839	   63.28	  181.26
   802	1	  450.16	  334.48	  208.82
   803	1	  450.16	  137.86	   18.02
   804	1	 512.791	  264.42	   99.64
   805	1	 244.652	  240.69	  120.84
   806	1	 152.663	  164.98	   87.98
   807	1	 481.475	  210.18	  207.76
   808	1	 195.722	  151.42	   18.02
   809	1	 315.112	  222.61	    58.3
   810	1	 559.764	  318.66	  192.92
   811	1	 205.508	  134.47	    47.7
   812	1	 158.535	   25.99	   13.78
   813	1	 148.749	   36.16	  187.62
   814	1	 405.144	   57.63	   65.72
   815	1	 409.058	   53.11	  193.98
   816	1	 272.053	  290.41	  181.26
   817	1	  154.62	   93.79	  115.54
   818	1	 354.256	   93.79	  166.42
   819	1	 293.583	   20.34	  192.92
   820	1	 74.3743	   13.56	  120.84
   821	1	 346.427	   80.23	  210.94
   822	1	 430.588	  171.76	   20.14
   823	1	 332.727	  198.88	    7.42
   824	1	 412.973	  213.57	   201.4
   825	1	 364.042	  287.02	  151.58
   826	1	 234.866	  176.28	  163.24
   827	1	 438.417	   305.1	  135.68
   828	1	 416.887	  281.37	  195.04