ITEM: TIMESTEP
0
ITEM: NUMBER OF ATOMS
1000
ITEM: BOX BOUNDS xy xz yz
-195.722	391.443	195.722
-169.5	169.5	0
-106	106	0
ITEM: ATOMS index type x y z
     0	1	 193.765	   23.73	   91.16
     1	1	 266.182	   49.72	  210.94
     2	1	 311.198	   93.79	   51.94
     3	1	 121.347	   27.12	  156.88
     4	1	 148.749	    67.8	   97.52
     5	1	  534.32	  317.53	    47.7
     6	1	 158.535	  202.27	  191.86
     7	1	 197.679	   77.97	  144.16
     8	1	 232.909	  227.13	     106
     9	1	 530.406	  331.09	   49.82
    10	1	 426.673	   158.2	   143.1
    11	1	  260.31	  145.77	  199.28
    12	1	 262.267	  151.42	   43.46
    13	1	  520.62	  264.42	   55.12
    14	1	  154.62	  202.27	  187.62
    15	1	 223.123	  287.02	   87.98
    16	1	  344.47	   42.94	   22.26
    17	1	 454.074	  144.64	    15.9
    18	1	 172.235	  198.88	   92.22
    19	1	 285.754	   94.92	   89.04
    20	1	 228.994	  222.61	    58.3
    21	1	  45.016	    3.39	  131.44
    22	1	 113.519	  122.04	  122.96
    23	1	 266.182	  307.36	  138.86
    24	1	 373.829	   64.41	   67.84
    25	1	 348.385	  155.94	    2.12
    26	1	 434.502	   124.3	   45.58
    27	1	 174.192	  274.59	   44.52
    28	1	 412.973	  229.39	     5.3
    29	1	 256.395	  118.65	   57.24
    30	1	 334.684	  132.21	  178.08
    31	1	 287.711	   91.53	   116.6
    32	1	 97.8609	    67.8	  103.88
    33	1	 148.749	   101.7	    31.8
    34	1	 142.877	   46.33	     5.3
    35	1	 463.861	  283.63	   121.9
    36	1	 185.936	  179.67	  205.64
    37	1	 469.732	  320.92	   32.86
    38	1	 252.481	    5.65	   13.78
    39	1	 187.893	  314.14	  210.94
    40	1	 187.893	   192.1	   64.66
    41	1	 279.882	   98.31	    63.6
    42	1	 420.802	  148.03	     5.3
    43	1	  309.24	  239.56	  210.94
    44	1	  189.85	  148.03	  147.34
    45	1	 326.855	  111.87	    10.6
    46	1	 133.091	   54.24	   69.96
    47	1	 369.914	  294.93	    4.24
    48	1	 311.198	  256.51	   132.5
    49	1	 148.749	  205.66	  202.46
    50	1	  344.47	  198.88	  189.74
    51	1	 391.443	  178.54	   54.06
    52	1	  450.16	  117.52	   83.74
    53	1	 367.957	  117.52	   77.38
    54	1	 362.085	  294.93	  108.12
    55	1	 360.128	   27.12	   36.04
    56	1	 209.422	  132.21	  118.72
    57	1	 174.192	   39.55	   30.74
    58	1	 338.599	   64.41	     106
    59	1	 162.449	   73.45	    79.5
    60	1	 373.829	   53.11	   111.3
    61	1	 454.074	   259.9	  208.82
    62	1	 223.123	  117.52	    58.3
    63	1	 389.486	  138.99	  171.72
    64	1	 512.791	  219.22	     5.3
    65	1	 64.5882	   66.67	  107.06
    66	1	 448.203	  274.59	    63.6
    67	1	 203.551	  171.76	   60.42
    68	1	 409.058	  240.69	   127.2
    69	1	 215.294	  205.66	   56.18
    70	1	 424.716	  256.51	  136.74
    71	1	 540.192	  314.14	  113.42
    72	1	   379.7	  246.34	  130.38
    73	1	 452.117	  138.99	   25.44
    74	1	 334.684	  166.11	  188.68
    75	1	 434.502	  144.64	   24.38
    76	1	 467.775	  301.71	  163.24
    77	1	 209.422	   59.89	  200.34
    78	1	 483.433	  331.09	   32.86
    79	1	 111.561	   44.07	   16.96
    80	1	 319.026	  120.91	   41.34
    81	1	 250.524	   124.3	   66.78
    82	1	 156.577	   81.36	  182.32
    83	1	 342.513	  202.27	  160.06
    84	1	 285.754	   158.2	   56.18
    85	1	 223.123	  142.38	      53
    86	1	 301.411	  183.06	  188.68
    87	1	 469.732	  253.12	   164.3
    88	1	 477.561	  298.32	  165.36
    89	1	 180.064	  103.96	  181.26
    90	1	 522.577	  331.09	  104.94
    91	1	 493.219	  223.74	   48.76
    92	1	 64.5882	  105.09	   127.2
    93	1	 510.834	  267.81	  129.32
    94	1	 152.663	  115.26	   23.32
    95	1	 215.294	  244.08	   76.32
    96	1	 142.877	  152.55	  156.88
    97	1	 416.887	  107.35	   153.7
    98	1	 548.021	  291.54	   33.92
    99	1	 405.144	   30.51	  203.52
   100	1	 232.909	   50.85	   148.4
   101	1	 405.144	  335.61	  205.64
   102	1	 418.845	  300.58	   64.66
   103	1	 70.4598	   27.12	   48.76
   104	1	  344.47	   29.38	  104.94
   105	1	 358.171	  308.49	    2.12
   106	1	 146.791	   59.89	    79.5
   107	1	 299.454	  159.33	  161.12
   108	1	 172.235	  189.84	  167.48
   109	1	  450.16	  291.54	   72.08
   110	1	 481.475	  205.66	  102.82
   111	1	 446.246	   271.2	   72.08
   112	1	 350.342	  166.11	  114.48
   113	1	   379.7	  250.86	  103.88
   114	1	 364.042	   94.92	   25.44
   115	1	 440.374	   87.01	  113.42
   116	1	 258.353	   237.3	   40.28
   117	1	 43.0588	    22.6	   39.22
   118	1	 170.278	   91.53	   97.52
   119	1	 138.962	   50.85	  197.16
   120	1	 299.454	  168.37	   22.26
   121	1	 489.304	  287.02	   34.98
   122	1	 262.267	  144.64	  109.18
   123	1	 91.9892	  120.91	  102.82
   124	1	 452.117	  236.17	    47.7
   125	1	 328.813	  164.98	    26.5
   126	1	 217.251	  179.67	   78.44
   127	1	 283.797	  317.53	   75.26
   128	1	 311.198	  215.83	  119.78
   129	1	 352.299	  137.86	   24.38
   130	1	 275.968	  161.59	  183.38
   131	1	 409.058	  294.93	    4.24
   132	1	 172.235	  205.66	  109.18
   133	1	 270.096	  284.76	  114.48
   134	1	 548.021	   305.1	  114.48
   135	1	 121.347	   97.18	   185.5
   136	1	 232.909	  118.65	  156.88
   137	1	 508.877	  253.12	  145.22
   138	1	 422.759	  318.66	   46.64
   139	1	 512.791	   293.8	  126.14
   140	1	 444.288	  283.63	    68.9
   141	1	 463.861	  301.71	  173.84
   142	1	 180.064	   74.58	    42.4
   143	1	 381.657	   87.01	    3.18
   144	1	 350.342	   46.33	   41.34
   145	1	 174.192	  175.15	  187.62
   146	1	 133.091	   70.06	  124.02
   147	1	 428.631	  134.47	   39.22
   148	1	 125.262	    33.9	  108.12
   149	1	  569.55	  328.83	  103.88
   150	1	 115.476	  186.45	    42.4
   151	1	 328.813	    2.26	  128.26
   152	1	 407.101	  178.54	   143.1
   153	1	 409.058	  317.53	   96.46
   154	1	 512.791	  219.22	  210.94
   155	1	 205.508	  297.19	  168.54
   156	1	 137.005	  176.28	  203.52
   157	1	 236.823	   73.45	   71.02
   158	1	 158.535	  267.81	     106
   159	1	 307.283	   19.21	  124.02
   160	1	 315.112	  181.93	   206.7
   161	1	 240.738	  206.79	   82.68
   162	1	 546.064	  281.37	   201.4
   163	1	 487.347	  308.49	    8.48
   164	1	  499.09	  227.13	   137.8
   165	1	 405.144	  118.65	    31.8
   166	1	 268.139	   80.23	   85.86
   167	1	  485.39	  320.92	  115.54
   168	1	 146.791	   91.53	   50.88
   169	1	 244.652	    3.39	    6.36
   170	1	 279.882	  267.81	  146.28
   171	1	 264.224	  240.69	  175.96
   172	1	  119.39	   87.01	   54.06
   173	1	 191.807	  250.86	  118.72
   174	1	 438.417	  219.22	  149.46
   175	1	 307.283	  247.47	  163.24
   176	1	  330.77	   50.85	  120.84
   177	1	 403.187	  253.12	  126.14
   178	1	 293.583	  314.14	  189.74
   179	1	  330.77	  188.71	  128.26
   180	1	 391.443	  334.48	   81.62
   181	1	 135.048	   25.99	    7.42
   182	1	 250.524	   192.1	   164.3
   183	1	  225.08	  303.97	   60.42
   184	1	 299.454	  202.27	   174.9
   185	1	 107.647	   71.19	     159
   186	1	 217.251	   64.41	  139.92
   187	1	  344.47	   203.4	  101.76
   188	1	  295.54	  209.05	  151.58
   189	1	 369.914	  242.95	   66.78
   190	1	 324.898	  178.54	  124.02
   191	1	 481.475	  216.96	  120.84
   192	1	 221.166	  256.51	   60.42
   193	1	 373.829	   53.11	  149.46
   194	1	 129.176	  171.76	   41.34
   195	1	 459.946	  181.93	   94.34
   196	1	 264.224	  215.83	  138.86
   197	1	 270.096	  300.58	   22.26
   198	1	 320.984	  205.66	   49.82
   199	1	 144.834	  151.42	  157.94
   200	1	 454.074	  280.24	  138.86
   201	1	 121.347	   47.46	   148.4
   202	1	 434.502	  332.22	  139.92
   203	1	 195.722	  287.02	    58.3
   204	1	 399.272	  149.16	  118.72
   205	1	 213.337	   16.95	   93.28
   206	1	 483.433	  215.83	   49.82
   207	1	 383.615	  205.66	  151.58
   208	1	 111.561	   16.95	   89.04
   209	1	 481.475	  164.98	   56.18
   210	1	 180.064	   97.18	    1.06
   211	1	 319.026	  256.51	  113.42
   212	1	 170.278	  134.47	   28.62
   213	1	 262.267	     226	   28.62
   214	1	  62.631	   13.56	  150.52
   215	1	 160.492	   63.28	   196.1
   216	1	     366	  186.45	  120.84
   217	1	 227.037	   54.24	   190.8
   218	1	 283.797	   73.45	    58.3
   219	1	 201.593	  297.19	   77.38
   220	1	 307.283	  215.83	  208.82
   221	1	 356.214	  257.64	  118.72
   222	1	 364.042	   327.7	  198.22
   223	1	 207.465	   101.7	  156.88
   224	1	 291.625	  317.53	  149.46
   225	1	 262.267	  223.74	  173.84
   226	1	 283.797	   50.85	  195.04
   227	1	  260.31	   57.63	   97.52
   228	1	 162.449	   57.63	   55.12
   229	1	 289.668	   135.6	   137.8
   230	1	 362.085	  242.95	  191.86
   231	1	 127.219	   59.89	  191.86
   232	1	 252.481	  166.11	  199.28
   233	1	 160.492	  131.08	   13.78
   234	1	 420.802	  154.81	  189.74
   235	1	 174.192	   80.23	  117.66
   236	1	  309.24	   293.8	  202.46
   237	1	  295.54	   64.41	   148.4
   238	1	     366	  111.87	  131.44
   239	1	 424.716	   77.97	   46.64
   240	1	 232.909	  100.57	   71.02
   241	1	 152.663	   13.56	  131.44
   242	1	 399.272	  325.44	  144.16
   243	1	 250.524	  257.64	  163.24
   244	1	 246.609	   54.24	   67.84
   245	1	 367.957	  205.66	     5.3
   246	1	 221.166	  254.25	    2.12
   247	1	 424.716	   73.45	  200.34
   248	1	 232.909	  254.25	  165.36
   249	1	 354.256	  229.39	  170.66
   250	1	  225.08	   98.31	  103.88
   251	1	 320.984	  176.28	   86.92
   252	1	  401.23	  222.61	   43.46
   253	1	 258.353	  332.22	   180.2
   254	1	 387.529	  216.96	  175.96
   255	1	 297.497	   61.02	    10.6
   256	1	 244.652	  105.09	   12.72
   257	1	 166.363	   39.55	  166.42
   258	1	 430.588	  253.12	   87.98
   259	1	 264.224	  301.71	     106
   260	1	 340.556	   76.84	  210.94
   261	1	  555.85	  307.36	  109.18
   262	1	 166.363	  188.71	  200.34
   263	1	 127.219	   10.17	      53
   264	1	  401.23	  175.15	  128.26
   265	1	 91.9892	  145.77	  156.88
   266	1	  189.85	  125.43	   29.68
   267	1	 103.733	   87.01	   49.82
   268	1	 195.722	  298.32	     159
   269	1	 146.791	   71.19	   89.04
   270	1	  90.032	  128.82	   76.32
   271	1	 328.813	  325.44	   36.04
   272	1	 68.5026	   80.23	  107.06
   273	1	 385.572	   80.23	  172.78
   274	1	 99.8181	  161.59	  198.22
   275	1	 95.9037	   98.31	   25.44
   276	1	 262.267	   88.14	     159
   277	1	  119.39	  134.47	   94.34
   278	1	 156.577	   192.1	  170.66
   279	1	 305.326	   327.7	  177.02
   280	1	 172.235	   293.8	  104.94
   281	1	 412.973	  261.03	  188.68
   282	1	 403.187	  110.74	  183.38
   283	1	 195.722	   158.2	   196.1
   284	1	 252.481	  308.49	    10.6
   285	1	 238.781	  115.26	   61.48
   286	1	  534.32	  328.83	    2.12
   287	1	 319.026	   32.77	    7.42
   288	1	 275.968	   10.17	  122.96
   289	1	 301.411	   101.7	  108.12
   290	1	  225.08	  105.09	    74.2
   291	1	 385.572	  294.93	   46.64
   292	1	 459.946	  303.97	    3.18
   293	1	 457.989	  264.42	   99.64
   294	1	 252.481	   44.07	   48.76
   295	1	 548.021	  291.54	  207.76
   296	1	 362.085	  148.03	   28.62
   297	1	 152.663	   237.3	     106
   298	1	 197.679	   91.53	   137.8
   299	1	 238.781	   135.6	  131.44
   300	1	 508.877	  300.58	   49.82
   301	1	 275.968	   91.53	   25.44
   302	1	 297.497	     226	    37.1
   303	1	 285.754	   97.18	   41.34
   304	1	 348.385	   158.2	    90.1
   305	1	 373.829	   10.17	  118.72
   306	1	 111.561	   39.55	    9.54
   307	1	 285.754	   293.8	    90.1
   308	1	 197.679	  274.59	   89.04
   309	1	 115.476	  105.09	  178.08
   310	1	 479.518	  249.73	  136.74
   311	1	 195.722	    67.8	   27.56
   312	1	 463.861	  220.35	  101.76
   313	1	 135.048	  111.87	    42.4
   314	1	 508.877	  291.54	  197.16
   315	1	 213.337	  127.69	   60.42
   316	1	 420.802	  175.15	   39.22
   317	1	 371.871	   97.18	  162.18
   318	1	 268.139	  159.33	   44.52
   319	1	 405.144	  247.47	   59.36
   320	1	 369.914	   80.23	    79.5
   321	1	 409.058	  249.73	   56.18
   322	1	 432.545	  195.49	  134.62
   323	1	 416.887	   98.31	  188.68
   324	1	 297.497	  264.42	   48.76
   325	1	 403.187	  284.76	    42.4
   326	1	  260.31	  229.39	   206.7
   327	1	 432.545	  141.25	   45.58
   328	1	  414.93	   76.84	   92.22
   329	1	 172.235	   237.3	      53
   330	1	 272.053	   66.67	  109.18
   331	1	 131.134	  111.87	  103.88
   332	1	 336.641	   83.62	   62.54
   333	1	 371.871	  212.44	   30.74
   334	1	 332.727	    22.6	     5.3
   335	1	 262.267	   203.4	   99.64
   336	1	  17.615	   30.51	  110.24
   337	1	  176.15	   76.84	  170.66
   338	1	 299.454	  303.97	  181.26
   339	1	 148.749	  117.52	  170.66
   340	1	 223.123	  178.54	   132.5
   341	1	 454.074	  164.98	   30.74
   342	1	 352.299	   42.94	   100.7
   343	1	 252.481	  200.01	  203.52
   344	1	 457.989	  151.42	  155.82
   345	1	 504.962	   327.7	  134.62
   346	1	  309.24	  318.66	   29.68
   347	1	 250.524	   293.8	    47.7
   348	1	 199.636	   169.5	   69.96
   349	1	  225.08	   37.29	  156.88
   350	1	 463.861	  186.45	   33.92
   351	1	 127.219	  132.21	  101.76
   352	1	 187.893	    6.78	  139.92
   353	1	 412.973	  308.49	  108.12
   354	1	 266.182	    6.78	   40.28
   355	1	 283.797	  270.07	     5.3
   356	1	  105.69	   169.5	  161.12
   357	1	 23.4866	   40.68	   91.16
   358	1	 563.679	   327.7	   98.58
   359	1	 489.304	  307.36	  166.42
   360	1	 191.807	   49.72	  151.58
   361	1	 342.513	  159.33	  152.64
   362	1	 324.898	  176.28	   93.28
   363	1	 322.941	  100.57	   164.3
   364	1	 291.625	  206.79	  209.88
   365	1	 103.733	  118.65	     159
   366	1	 281.839	  314.14	    79.5
   367	1	 373.829	    3.39	  165.36
   368	1	 542.149	  322.05	    2.12
   369	1	 389.486	  322.05	   91.16
   370	1	 371.871	  171.76	   94.34
   371	1	 266.182	  314.14	    68.9
   372	1	 301.411	   305.1	  182.32
   373	1	 228.994	  206.79	   61.48
   374	1	  344.47	  332.22	   57.24
   375	1	 297.497	  142.38	   80.56
   376	1	 64.5882	   98.31	  207.76
   377	1	 411.016	  212.44	   185.5
   378	1	 183.978	  232.78	    3.18
   379	1	 407.101	  164.98	   96.46
   380	1	 297.497	  171.76	    1.06
   381	1	 285.754	  239.56	   60.42
   382	1	 29.3583	   46.33	   45.58
   383	1	 168.321	   29.38	  181.26
   384	1	 497.133	  189.84	    8.48
   385	1	 407.101	  210.18	    21.2
   386	1	 430.588	  253.12	   30.74
   387	1	 277.925	  223.74	  188.68
   388	1	 60.6737	    5.65	    26.5
   389	1	  260.31	   46.33	   164.3
   390	1	  569.55	  310.75	    15.9
   391	1	  274.01	     226	   49.82
   392	1	 352.299	    22.6	  119.78
   393	1	 320.984	  318.66	  144.16
   394	1	 201.593	   87.01	  187.62
   395	1	 111.561	  134.47	  204.58
   396	1	 354.256	  193.23	   91.16
   397	1	 285.754	  155.94	  188.68
   398	1	 510.834	  310.75	   32.86
   399	1	 367.957	  280.24	  113.42
   400	1	 197.679	  148.03	  109.18
   401	1	 358.171	  148.03	   87.98
   402	1	 217.251	  303.97	    9.54
   403	1	 501.048	  216.96	    4.24
   404	1	 103.733	  132.21	   36.04
   405	1	 540.192	  266.68	   66.78
   406	1	 313.155	   158.2	  128.26
   407	1	 493.219	  244.08	  135.68
   408	1	 424.716	  127.69	   206.7
   409	1	  140.92	   40.68	   116.6
   410	1	 389.486	   91.53	   97.52
   411	1	 342.513	  114.13	  200.34
   412	1	 262.267	   74.58	   82.68
   413	1	 375.786	   237.3	   16.96
   414	1	 240.738	  297.19	   71.02
   415	1	  105.69	    33.9	  144.16
   416	1	 315.112	  213.57	  175.96
   417	1	 405.144	  148.03	    1.06
   418	1	 319.026	   59.89	    15.9
   419	1	 256.395	   53.11	   81.62
   420	1	 307.283	   64.41	   61.48
   421	1	 291.625	  118.65	   78.44
   422	1	 313.155	   20.34	  161.12
   423	1	 307.283	    5.65	  117.66
   424	1	 91.9892	   19.21	   143.1
   425	1	 183.978	  108.48	   27.56
   426	1	 281.839	   63.28	  166.42
   427	1	 240.738	    3.39	   44.52
   428	1	 317.069	  164.98	    47.7
   429	1	 481.475	   169.5	  156.88
   430	1	 307.283	  227.13	  161.12
   431	1	 39.1443	    33.9	  182.32
   432	1	 60.6737	  105.09	  120.84
   433	1	 109.604	   135.6	  146.28
   434	1	 285.754	   124.3	   45.58
   435	1	 362.085	  242.95	  115.54
   436	1	 418.845	  185.32	   39.22
   437	1	 88.0748	   12.43	  136.74
   438	1	 213.337	   57.63	  197.16
   439	1	  344.47	   20.34	  103.88
   440	1	     366	    5.65	  149.46
   441	1	  330.77	  209.05	   77.38
   442	1	 270.096	   40.68	  209.88
   443	1	 172.235	    67.8	  125.08
   444	1	 495.176	  200.01	   93.28
   445	1	 150.706	  233.91	    8.48
   446	1	 84.1603	   80.23	   100.7
   447	1	 422.759	  108.48	  108.12
   448	1	 428.631	   84.75	  125.08
   449	1	 348.385	  273.46	   111.3
   450	1	 362.085	   80.23	  104.94
   451	1	 148.749	    67.8	   61.48
   452	1	 50.8877	   74.58	  118.72
   453	1	 111.561	  161.59	   49.82
   454	1	 182.021	  233.91	  129.32
   455	1	 180.064	  155.94	       0
   456	1	  27.401	   13.56	   82.68
   457	1	 46.9732	    67.8	     106
   458	1	 215.294	   101.7	   99.64
   459	1	 504.962	  314.14	   54.06
   460	1	 166.363	  200.01	  165.36
   461	1	 103.733	   98.31	   127.2
   462	1	 46.9732	   42.94	  189.74
   463	1	 461.903	   124.3	  181.26
   464	1	 121.347	   13.56	   180.2
   465	1	 463.861	  179.67	   50.88
   466	1	 152.663	   88.14	  150.52
   467	1	 471.689	  263.29	  157.94
   468	1	   379.7	   158.2	  155.82
   469	1	 428.631	  267.81	  129.32
   470	1	 270.096	  223.74	   72.08
   471	1	 315.112	  213.57	  122.96
   472	1	 395.358	  300.58	   164.3
   473	1	 315.112	  175.15	   13.78
   474	1	 452.117	  274.59	    84.8
   475	1	 375.786	  155.94	  150.52
   476	1	  189.85	  310.75	  204.58
   477	1	 508.877	  277.98	   80.56
   478	1	 328.813	   61.02	   97.52
   479	1	 456.032	  141.25	   77.38
   480	1	   379.7	   293.8	  208.82
   481	1	 412.973	   64.41	  112.36
   482	1	 207.465	  212.44	   111.3
   483	1	 156.577	   192.1	   143.1
   484	1	 315.112	  222.61	   41.34
   485	1	 457.989	  128.82	   86.92
   486	1	 76.3315	   23.73	    10.6
   487	1	 201.593	   53.11	   39.22
   488	1	 360.128	  219.22	  115.54
   489	1	 223.123	   94.92	  192.92
   490	1	 236.823	  227.13	   180.2
   491	1	 281.839	  223.74	   38.16
   492	1	 205.508	  181.93	   66.78
   493	1	 391.443	  205.66	   83.74
   494	1	 117.433	  144.64	  109.18
   495	1	 319.026	  213.57	    10.6
   496	1	 48.9304	   80.23	  162.18
   497	1	 393.401	  202.27	   20.14
   498	1	 385.572	  100.57	   73.14
   499	1	 166.363	  118.65	   169.6
   500	1	 152.663	  108.48	   169.6
   501	1	 244.652	  132.21	    95.4
   502	1	 121.347	  110.74	  200.34
   503	1	 303.369	  159.33	   72.08
   504	1	 111.561	   25.99	    68.9
   505	1	 322.941	   87.01	  168.54
   506	1	 389.486	   -1.13	  126.14
   507	1	 242.695	  300.58	   73.14
   508	1	 107.647	    3.39	   82.68
   509	1	 322.941	  202.27	    9.54
   510	1	 129.176	   13.56	   59.36
   511	1	 362.085	  105.09	   23.32
   512	1	 121.347	    56.5	   121.9
   513	1	 362.085	   84.75	  125.08
   514	1	 138.962	  159.33	   14.84
   515	1	 393.401	   80.23	   56.18
   516	1	 138.962	  141.25	  109.18
   517	1	  90.032	  137.86	   41.34
   518	1	 252.481	  301.71	  173.84
   519	1	 303.369	  281.37	   82.68
   520	1	 240.738	  240.69	  207.76
   521	1	  414.93	  266.68	   41.34
   522	1	 219.208	   47.46	  142.04
   523	1	  119.39	  107.35	   39.22
   524	1	 203.551	   192.1	  189.74
   525	1	 311.198	  281.37	  188.68
   526	1	 489.304	   271.2	   29.68
   527	1	 268.139	  240.69	   148.4
   528	1	 444.288	  215.83	   85.86
   529	1	 236.823	   50.85	  122.96
   530	1	 254.438	   36.16	  177.02
   531	1	 35.2299	    33.9	   67.84
   532	1	 201.593	  233.91	  120.84
   533	1	 211.379	  298.32	   57.24
   534	1	 338.599	  263.29	  183.38
   535	1	 356.214	   20.34	    84.8
   536	1	  90.032	  137.86	    15.9
   537	1	 219.208	  151.42	   41.34
   538	1	 195.722	   94.92	     159
   539	1	 230.952	  284.76	   148.4
   540	1	 407.101	   169.5	  125.08
   541	1	 254.438	   94.92	  167.48
   542	1	 362.085	   46.33	   143.1
   543	1	  260.31	  202.27	   64.66
   544	1	 360.128	  103.96	   49.82
   545	1	  176.15	   13.56	    42.4
   546	1	 283.797	  276.85	   11.66
   547	1	 420.802	   59.89	   22.26
   548	1	 367.957	  162.72	   40.28
   549	1	 180.064	  216.96	   23.32
   550	1	 219.208	     226	   32.86
   551	1	 508.877	  300.58	   121.9
   552	1	 211.379	   192.1	  157.94
   553	1	 399.272	    67.8	  114.48
   554	1	 236.823	   25.99	  149.46
   555	1	 164.406	  257.64	    84.8
   556	1	 503.005	  281.37	  120.84
   557	1	 364.042	    2.26	  151.58
   558	1	 270.096	  318.66	   137.8
   559	1	 544.106	  311.88	  175.96
   560	1	  344.47	  110.74	  183.38
   561	1	 207.465	  244.08	  203.52
   562	1	 74.3743	   81.36	  205.64
   563	1	 264.224	  331.09	   62.54
   564	1	 348.385	   61.02	  129.32
   565	1	 291.625	  195.49	  179.14
   566	1	 479.518	  297.19	   13.78
   567	1	  274.01	  320.92	   56.18
   568	1	 211.379	   13.56	   67.84
   569	1	 557.807	  324.31	   13.78
   570	1	  344.47	   135.6	   14.84
   571	1	 182.021	   37.29	   99.64
   572	1	 193.765	  181.93	  113.42
   573	1	 487.347	  322.05	   29.68
   574	1	 268.139	  209.05	    3.18
   575	1	 262.267	  307.36	  119.78
   576	1	 311.198	   19.21	   111.3
   577	1	 315.112	  168.37	   132.5
   578	1	  295.54	  127.69	   153.7
   579	1	 43.0588	    22.6	   98.58
   580	1	 457.989	  246.34	  204.58
   581	1	 248.567	  288.15	   67.84
   582	1	 332.727	  151.42	   56.18
   583	1	 348.385	   83.62	   96.46
   584	1	 76.3315	   66.67	   153.7
   585	1	 262.267	   42.94	  128.26
   586	1	 371.871	   83.62	    26.5
   587	1	 266.182	   20.34	  150.52
   588	1	 221.166	   84.75	   169.6
   589	1	 25.4438	   23.73	  207.76
   590	1	 275.968	  120.91	   185.5
   591	1	 461.903	   259.9	  208.82
   592	1	 305.326	  216.96	    74.2
   593	1	 160.492	     226	  179.14
   594	1	 236.823	  213.57	  161.12
   595	1	 385.572	  100.57	   22.26
   596	1	 391.443	   40.68	   48.76
   597	1	 364.042	   74.58	  120.84
   598	1	 573.465	  331.09	  183.38
   599	1	 182.021	  186.45	  103.88
   600	1	  450.16	  219.22	   196.1
   601	1	 504.962	  311.88	   93.28
   602	1	 277.925	  185.32	    1.06
   603	1	 373.829	  107.35	   51.94
   604	1	 299.454	  290.41	    37.1
   605	1	 342.513	  111.87	   38.16
   606	1	 444.288	  249.73	  115.54
   607	1	 336.641	   61.02	  184.44
   608	1	 354.256	  308.49	   38.16
   609	1	 354.256	   91.53	  173.84
   610	1	 526.491	  303.97	   13.78
   611	1	 454.074	  253.12	   41.34
   612	1	  225.08	   50.85	  122.96
   613	1	  140.92	   47.46	  131.44
   614	1	 326.855	  249.73	   153.7
   615	1	 293.583	   88.14	    10.6
   616	1	 277.925	  178.54	   11.66
   617	1	 180.064	  239.56	   45.58
   618	1	 78.2887	   15.82	   96.46
   619	1	  189.85	   80.23	  166.42
   620	1	 442.331	  264.42	    8.48
   621	1	 221.166	  294.93	  142.04
   622	1	 199.636	   29.38	  204.58
   623	1	 195.722	   70.06	  179.14
   624	1	 242.695	  178.54	  166.42
   625	1	 213.337	    3.39	    95.4
   626	1	  105.69	   63.28	    90.1
   627	1	 166.363	  179.67	   89.04
   628	1	 487.347	  195.49	  166.42
   629	1	 428.631	  290.41	   43.46
   630	1	 172.235	  155.94	  184.44
   631	1	  260.31	  161.59	    1.06
   632	1	 422.759	  280.24	   164.3
   633	1	 397.315	   84.75	  114.48
   634	1	 403.187	     226	  181.26
   635	1	 491.262	  263.29	   32.86
   636	1	 579.336	  334.48	  126.14
   637	1	 52.8449	   23.73	   23.32
   638	1	 236.823	  154.81	   87.98
   639	1	 217.251	   -1.13	   54.06
   640	1	 428.631	  331.09	  145.22
   641	1	 393.401	   16.95	   190.8
   642	1	 385.572	   91.53	     159
   643	1	 252.481	  240.69	   23.32
   644	1	 395.358	   81.36	   19.08
   645	1	 115.476	  154.81	   34.98
   646	1	 317.069	    2.26	  208.82
   647	1	 491.262	  317.53	  204.58
   648	1	 258.353	  171.76	   73.14
   649	1	  344.47	  108.48	  173.84
   650	1	 46.9732	       0	   180.2
   651	1	  414.93	  103.96	   45.58
   652	1	 393.401	  317.53	    9.54
   653	1	  260.31	  222.61	  177.02
   654	1	 481.475	  244.08	    4.24
   655	1	 395.358	  257.64	   19.08
   656	1	  485.39	  277.98	    21.2
   657	1	 391.443	    33.9	  188.68
   658	1	 178.107	  247.47	  207.76
   659	1	 360.128	   158.2	  204.58
   660	1	 109.604	  108.48	     106
   661	1	 252.481	   59.89	  208.82
   662	1	 60.6737	   23.73	  142.04
   663	1	  485.39	  287.02	   62.54
   664	1	 160.492	  162.72	   99.64
   665	1	 172.235	  287.02	  189.74
   666	1	 356.214	  253.12	   66.78
   667	1	 373.829	   59.89	  138.86
   668	1	 168.321	   20.34	    42.4
   669	1	 197.679	   37.29	    74.2
   670	1	 317.069	   271.2	   33.92
   671	1	 338.599	  294.93	  120.84
   672	1	 428.631	  141.25	   56.18
   673	1	 275.968	    3.39	  101.76
   674	1	 326.855	  161.59	   64.66
   675	1	 438.417	   259.9	   94.34
   676	1	 291.625	  120.91	   196.1
   677	1	 479.518	  281.37	    95.4
   678	1	 348.385	   327.7	   43.46
   679	1	 497.133	  253.12	   92.22
   680	1	 158.535	   80.23	   39.22
   681	1	 411.016	   327.7	   66.78
   682	1	 403.187	  318.66	   69.96
   683	1	 285.754	   305.1	   46.64
   684	1	 287.711	  270.07	   24.38
   685	1	 364.042	    6.78	  133.56
   686	1	 64.5882	  105.09	  150.52
   687	1	 422.759	   101.7	   116.6
   688	1	 430.588	  137.86	  202.46
   689	1	 158.535	  200.01	   78.44
   690	1	 328.813	  287.02	   100.7
   691	1	 258.353	  244.08	   61.48
   692	1	 444.288	  315.27	  199.28
   693	1	 31.3155	   36.16	  138.86
   694	1	  189.85	   98.31	   190.8
   695	1	 203.551	  216.96	   65.72
   696	1	 364.042	  246.34	   75.26
   697	1	 299.454	  172.89	  178.08
   698	1	 33.2727	   25.99	   132.5
   699	1	  450.16	  253.12	   22.26
   700	1	   379.7	    90.4	   24.38
   701	1	 244.652	   77.97	   76.32
   702	1	 227.037	   20.34	   23.32
   703	1	 313.155	   63.28	    79.5
   704	1	 340.556	  314.14	  202.46
   705	1	 279.882	  281.37	  144.16
   706	1	 420.802	  186.45	  165.36
   707	1	 373.829	  175.15	   66.78
   708	1	 389.486	  276.85	  181.26
   709	1	 444.288	  247.47	    42.4
   710	1	  414.93	  142.38	       0
   711	1	 80.2459	  132.21	   86.92
   712	1	 416.887	  227.13	   46.64
   713	1	 416.887	  324.31	   32.86
   714	1	 242.695	   36.16	  198.22
   715	1	 91.9892	   66.67	   132.5
   716	1	 522.577	  328.83	   12.72
   717	1	  119.39	   32.77	   62.54
   718	1	 236.823	  209.05	   66.78
   719	1	 76.3315	   50.85	  175.96
   720	1	 133.091	  149.16	   25.44
   721	1	 221.166	  154.81	  136.74
   722	1	 375.786	  110.74	  177.02
   723	1	 389.486	  215.83	  151.58
   724	1	 418.845	   237.3	  171.72
   725	1	 279.882	  179.67	    2.12
   726	1	 166.363	  152.55	  108.12
   727	1	 252.481	  195.49	   62.54
   728	1	 244.652	   25.99	  181.26
   729	1	 399.272	   88.14	   14.84
   730	1	 524.534	  325.44	   59.36
   731	1	 127.219	  181.93	   30.74
   732	1	 422.759	  318.66	    31.8
   733	1	 223.123	  318.66	   78.44
   734	1	 381.657	  154.81	    58.3
   735	1	 127.219	  195.49	  157.94
   736	1	     366	  175.15	   196.1
   737	1	 340.556	   40.68	    10.6
   738	1	 479.518	  276.85	   30.74
   739	1	 461.903	  266.68	  134.62
   740	1	 201.593	  288.15	   48.76
   741	1	 41.1016	   64.41	   91.16
   742	1	 311.198	   80.23	  200.34
   743	1	 191.807	  239.56	  202.46
   744	1	 158.535	  175.15	   49.82
   745	1	 252.481	  242.95	   174.9
   746	1	 397.315	  161.59	   164.3
   747	1	 242.695	    90.4	  155.82
   748	1	 436.459	  247.47	   38.16
   749	1	 101.775	  142.38	   190.8
   750	1	 354.256	  303.97	    58.3
   751	1	     366	  274.59	   86.92
   752	1	 438.417	   305.1	    8.48
   753	1	 66.5454	    56.5	  126.14
   754	1	 438.417	     226	   13.78
   755	1	 31.3155	    6.78	    21.2
   756	1	 240.738	   10.17	  163.24
   757	1	  260.31	  175.15	  104.94
   758	1	 340.556	   271.2	  154.76
   759	1	 207.465	   76.84	    47.7
   760	1	 137.005	    90.4	  155.82
   761	1	  119.39	   25.99	   196.1
   762	1	 422.759	  219.22	   87.98
   763	1	 364.042	  253.12	  170.66
   764	1	 244.652	  220.35	   78.44
   765	1	 471.689	  267.81	    8.48
   766	1	 127.219	  188.71	    9.54
   767	1	 362.085	   53.11	  187.62
   768	1	 326.855	   46.33	   75.26
   769	1	 375.786	  277.98	       0
   770	1	  260.31	    3.39	  167.48
   771	1	 213.337	  261.03	   86.92
   772	1	 399.272	   97.18	  210.94
   773	1	 221.166	  206.79	   72.08
   774	1	 35.2299	    33.9	  184.44
   775	1	   379.7	    90.4	   206.7
   776	1	 111.561	   91.53	    74.2
   777	1	 354.256	   73.45	    9.54
   778	1	 426.673	  216.96	   169.6
   779	1	 448.203	  138.99	     159
   780	1	 172.235	   237.3	  108.12
   781	1	 475.604	  274.59	    6.36
   782	1	 307.283	  134.47	  117.66
   783	1	 144.834	  144.64	  172.78
   784	1	 211.379	  320.92	  147.34
   785	1	 317.069	  108.48	   148.4
   786	1	 430.588	  183.06	   46.64
   787	1	 422.759	  332.22	   29.68
   788	1	 512.791	   327.7	  191.86
   789	1	 133.091	  230.52	   59.36
   790	1	 362.085	   87.01	   92.22
   791	1	  414.93	   293.8	  136.74
   792	1	 127.219	    3.39	    84.8
   793	1	 277.925	   29.38	   18.02
   794	1	 444.288	  100.57	   164.3
   795	1	  260.31	  233.91	  144.16
   796	1	 250.524	  162.72	  182.32
   797	1	 495.176	  263.29	  172.78
   798	1	  295.54	  267.81	   127.2
   799	1	  414.93	  307.36	   56.18
   800	1	  499.09	  193.23	  182.32
   801	1	  401.23	  213.57	  178.08
   802	1	 137.005	    33.9	   190.8
   803	1	 213.337	  247.47	   36.04
   804	1	 279.882	  186.45	  209.88
   805	1	  140.92	   124.3	   54.06
   806	1	 508.877	  280.24	  117.66
   807	1	 230.952	     226	   174.9
   808	1	 479.518	  274.59	  173.84
   809	1	 428.631	   77.97	  101.76
   810	1	 487.347	  188.71	   34.98
   811	1	  330.77	   16.95	   50.88
   812	1	 228.994	  159.33	  112.36
   813	1	 43.0588	   49.72	    9.54
   814	1	 33.2727	   10.17	  163.24
   815	1	 420.802	  141.25	    90.1
   816	1	 348.385	  266.68	   60.42
   817	1	 219.208	  189.84	   38.16
   818	1	 524.534	  307.36	   22.26
   819	1	 236.823	   66.67	    1.06
   820	1	 422.759	   81.36	  186.56
   821	1	 123.305	   44.07	  192.92
   822	1	 115.476	  127.69	  191.86
   823	1	 297.497	   74.58	   29.68
   824	1	 320.984	   135.6	   46.64
   825	1	 64.5882	   23.73	  205.64
   826	1	 209.422	  247.47	  129.32
   827	1	  189.85	   53.11	  138.86
   828	1	 387.529	    67.8	   190.8