ITEM: TIMESTEP
0
ITEM: NUMBER OF ATOMS
500
ITEM: BOX BOUNDS xy xz yz
-195.722	391.443	195.722
-169.5	169.5	0
-106	106	0
ITEM: ATOMS index type x y z
     0	1	 409.058	   37.29	  146.28
     1	1	 172.235	   29.38	   39.22
     2	1	 266.182	   27.12	  142.04
     3	1	 506.919	  220.35	  103.88
     4	1	  485.39	  196.62	  173.84
     5	1	 35.2299	    2.26	  183.38
     6	1	 146.791	  141.25	   18.02
     7	1	 254.438	  210.18	  152.64
     8	1	 170.278	  227.13	  154.76
     9	1	 381.657	  229.39	  191.86
    10	1	 426.673	   135.6	    21.2
    11	1	 213.337	  148.03	   34.98
    12	1	 195.722	   101.7	  139.92
    13	1	 111.561	   -1.13	   100.7
    14	1	 58.7165	    90.4	   20.14
    15	1	 148.749	    22.6	   18.02
    16	1	 211.379	       0	       0
    17	1	 191.807	   101.7	  175.96
    18	1	 299.454	  195.49	  210.94
    19	1	 405.144	  213.57	   12.72
    20	1	 307.283	  236.17	  183.38
    21	1	 328.813	   88.14	   25.44
    22	1	 454.074	  205.66	   39.22
    23	1	 272.053	  276.85	  187.62
    24	1	 242.695	  325.44	    31.8
    25	1	 320.984	   192.1	    68.9
    26	1	 412.973	  222.61	   64.66
    27	1	 199.636	  196.62	  165.36
    28	1	   379.7	  176.28	     106
    29	1	 182.021	  195.49	   121.9
    30	1	 405.144	   84.75	  135.68
    31	1	 416.887	  308.49	    42.4
    32	1	 137.005	  212.44	   132.5
    33	1	 313.155	  257.64	  139.92
    34	1	 113.519	       0	   25.44
    35	1	 232.909	  206.79	      53
    36	1	 385.572	  324.31	  155.82
    37	1	 129.176	  122.04	   169.6
    38	1	 473.647	  232.78	   164.3
    39	1	 369.914	  227.13	   99.64
    40	1	 148.749	    2.26	  170.66
    41	1	 403.187	   63.28	   153.7
    42	1	 432.545	  114.13	   66.78
    43	1	 553.893	  290.41	  104.94
    44	1	 346.427	   87.01	     5.3
    45	1	 39.1443	    56.5	  210.94
    46	1	 272.053	  195.49	  126.14
    47	1	 103.733	   91.53	   69.96
    48	1	 39.1443	   27.12	   40.28
    49	1	  330.77	  290.41	  140.98
    50	1	  309.24	  185.32	  183.38
    51	1	 168.321	   40.68	   65.72
    52	1	 74.3743	   42.94	  162.18
    53	1	 234.866	  128.82	  122.96
    54	1	 131.134	  111.87	   148.4
    55	1	 203.551	   88.14	  110.24
    56	1	  534.32	  276.85	  113.42
    57	1	 168.321	   237.3	   82.68
    58	1	 463.861	  335.61	   44.52
    59	1	 377.743	   32.77	    58.3
    60	1	 172.235	  196.62	   14.84
    61	1	 409.058	   44.07	  195.04
    62	1	 174.192	  236.17	   77.38
    63	1	 170.278	  172.89	   38.16
    64	1	 405.144	  227.13	  197.16
    65	1	 281.839	   135.6	  186.56
    66	1	 272.053	  256.51	     5.3
    67	1	 457.989	  298.32	   69.96
    68	1	 80.2459	    3.39	  142.04
    69	1	 442.331	  198.88	    9.54
    70	1	 262.267	  266.68	   98.58
    71	1	 156.577	  176.28	    31.8
    72	1	 91.9892	   -1.13	   62.54
    73	1	 385.572	   77.97	  133.56
    74	1	 497.133	  239.56	   98.58
    75	1	 436.459	  193.23	   40.28
    76	1	  295.54	  310.75	  162.18
    77	1	 358.171	  181.93	  145.22
    78	1	 248.567	  127.69	  162.18
    79	1	 236.823	   93.79	  177.02
    80	1	 109.604	  142.38	   148.4
    81	1	 336.641	  178.54	   98.58
    82	1	 362.085	  154.81	    15.9
    83	1	 80.2459	   80.23	   81.62
    84	1	 232.909	  242.95	  126.14
    85	1	 489.304	  219.22	  130.38
    86	1	 399.272	  277.98	   23.32
    87	1	 436.459	  209.05	   51.94
    88	1	 375.786	  189.84	   48.76
    89	1	  225.08	  213.57	      53
    90	1	 232.909	  270.07	   60.42
    91	1	 43.0588	   27.12	  110.24
    92	1	 15.6577	   20.34	  167.48
    93	1	 138.962	   53.11	  147.34
    94	1	 197.679	   77.97	  112.36
    95	1	 340.556	    6.78	  165.36
    96	1	 285.754	   259.9	   66.78
    97	1	  225.08	  256.51	  130.38
    98	1	 203.551	  273.46	    47.7
    99	1	 187.893	   94.92	  135.68
   100	1	 371.871	  244.08	  101.76
   101	1	 174.192	    3.39	    74.2
   102	1	 50.8877	   63.28	   121.9
   103	1	 101.775	  151.42	  160.06
   104	1	 459.946	  236.17	  145.22
   105	1	 338.599	  240.69	  139.92
   106	1	 236.823	  335.61	   65.72
   107	1	 403.187	  311.88	  142.04
   108	1	 389.486	   53.11	  126.14
   109	1	 127.219	   80.23	   45.58
   110	1	 146.791	   53.11	  162.18
   111	1	 268.139	   98.31	  199.28
   112	1	 426.673	  266.68	  183.38
   113	1	 322.941	  118.65	   148.4
   114	1	 252.481	  303.97	  155.82
   115	1	 152.663	   158.2	   75.26
   116	1	 234.866	   54.24	    8.48
   117	1	 493.219	  334.48	    9.54
   118	1	  401.23	  290.41	  202.46
   119	1	 207.465	  314.14	   153.7
   120	1	 199.636	  216.96	    63.6
   121	1	 457.989	  137.86	  179.14
   122	1	 530.406	  301.71	   93.28
   123	1	 371.871	  198.88	  166.42
   124	1	 352.299	  314.14	    7.42
   125	1	 262.267	   293.8	  160.06
   126	1	 461.903	  334.48	  189.74
   127	1	 203.551	  223.74	   16.96
   128	1	 135.048	  148.03	   41.34
   129	1	  274.01	  103.96	     5.3
   130	1	 109.604	   83.62	  170.66
   131	1	 469.732	   237.3	  175.96
   132	1	 369.914	   80.23	  172.78
   133	1	 479.518	  209.05	  107.06
   134	1	 138.962	    3.39	   80.56
   135	1	 479.518	  213.57	  173.84
   136	1	  140.92	   203.4	   93.28
   137	1	 405.144	  161.59	   111.3
   138	1	 446.246	   97.18	  130.38
   139	1	 352.299	  307.36	  145.22
   140	1	  401.23	  303.97	  147.34
   141	1	 553.893	  288.15	  146.28
   142	1	 328.813	  320.92	   100.7
   143	1	 381.657	  249.73	   111.3
   144	1	 471.689	  328.83	   27.56
   145	1	 60.6737	    5.65	   196.1
   146	1	 367.957	   49.72	   94.34
   147	1	 138.962	  132.21	  161.12
   148	1	 448.203	  308.49	   57.24
   149	1	 236.823	  242.95	   32.86
   150	1	 250.524	    33.9	  142.04
   151	1	 391.443	   74.58	    2.12
   152	1	 111.561	  100.57	   62.54
   153	1	 371.871	  230.52	   76.32
   154	1	 491.262	  294.93	   89.04
   155	1	 504.962	  320.92	    7.42
   156	1	 340.556	   169.5	   16.96
   157	1	 185.936	   64.41	   40.28
   158	1	 35.2299	       0	   116.6
   159	1	 285.754	  155.94	    2.12
   160	1	  176.15	  151.42	  168.54
   161	1	 285.754	  210.18	   38.16
   162	1	 150.706	   50.85	  161.12
   163	1	 403.187	  162.72	   59.36
   164	1	 424.716	  297.19	   64.66
   165	1	 201.593	   57.63	     159
   166	1	 178.107	  247.47	   137.8
   167	1	 166.363	  236.17	  147.34
   168	1	 158.535	  141.25	  193.98
   169	1	 473.647	  212.44	   143.1
   170	1	 58.7165	   70.06	     5.3
   171	1	 162.449	  179.67	  150.52
   172	1	 152.663	    2.26	  187.62
   173	1	 213.337	  222.61	    90.1
   174	1	 129.176	  122.04	   99.64
   175	1	 287.711	  227.13	  152.64
   176	1	 362.085	   87.01	    15.9
   177	1	 178.107	  301.71	   38.16
   178	1	 375.786	    33.9	   169.6
   179	1	 467.775	  240.69	  175.96
   180	1	 389.486	  290.41	    90.1
   181	1	 409.058	  168.37	   66.78
   182	1	 70.4598	   88.14	  161.12
   183	1	  189.85	   16.95	    95.4
   184	1	 213.337	  256.51	   11.66
   185	1	 82.2031	   49.72	   22.26
   186	1	  450.16	  223.74	   25.44
   187	1	 373.829	   71.19	  142.04
   188	1	 440.374	  125.43	  144.16
   189	1	 383.615	   13.56	    2.12
   190	1	  119.39	  148.03	  172.78
   191	1	 299.454	  209.05	  151.58
   192	1	 185.936	  233.91	  163.24
   193	1	 121.347	   47.46	  150.52
   194	1	 174.192	  281.37	   14.84
   195	1	  485.39	  291.54	   33.92
   196	1	 129.176	   88.14	   33.92
   197	1	 426.673	   327.7	   64.66
   198	1	 293.583	   327.7	    1.06
   199	1	 205.508	  263.29	   49.82
   200	1	 383.615	  264.42	    8.48
   201	1	 549.978	  297.19	  107.06
   202	1	 183.978	  300.58	    68.9
   203	1	 270.096	   158.2	   81.62
   204	1	 50.8877	   63.28	   64.66
   205	1	 101.775	  149.16	   38.16
   206	1	 133.091	   27.12	  156.88
   207	1	  499.09	  322.05	   99.64
   208	1	 213.337	   57.63	   89.04
   209	1	 375.786	  311.88	   19.08
   210	1	 43.0588	   15.82	   64.66
   211	1	 358.171	  148.03	   121.9
   212	1	 317.069	  122.04	  161.12
   213	1	 227.037	   97.18	  140.98
   214	1	 293.583	    33.9	    4.24
   215	1	 389.486	  206.79	  150.52
   216	1	 272.053	  236.17	   32.86
   217	1	 197.679	  281.37	  175.96
   218	1	 258.353	  311.88	    74.2
   219	1	 297.497	  246.34	   56.18
   220	1	 354.256	  270.07	   87.98
   221	1	 358.171	   50.85	  144.16
   222	1	  330.77	  263.29	  145.22
   223	1	 197.679	   16.95	   97.52
   224	1	 191.807	  185.32	  138.86
   225	1	 373.829	  159.33	  163.24
   226	1	 283.797	  100.57	  145.22
   227	1	 461.903	  232.78	  109.18
   228	1	 248.567	   84.75	  203.52
   229	1	 442.331	  115.26	   67.84
   230	1	 360.128	  216.96	   180.2
   231	1	 264.224	   84.75	  186.56
   232	1	 162.449	  229.39	    15.9
   233	1	 205.508	   44.07	   38.16
   234	1	 135.048	   93.79	   96.46
   235	1	 182.021	  186.45	   46.64
   236	1	 422.759	   81.36	   116.6
   237	1	 381.657	   93.79	    3.18
   238	1	 313.155	  176.28	   25.44
   239	1	 315.112	  263.29	   62.54
   240	1	 270.096	  291.54	  150.52
   241	1	 334.684	  181.93	   22.26
   242	1	 397.315	  328.83	   44.52
   243	1	 88.0748	  118.65	  125.08
   244	1	 354.256	  294.93	   40.28
   245	1	 305.326	    6.78	  118.72
   246	1	 422.759	  307.36	   83.74
   247	1	 332.727	   74.58	  139.92
   248	1	 313.155	   63.28	  151.58
   249	1	 360.128	   13.56	  161.12
   250	1	 407.101	  144.64	    15.9
   251	1	 336.641	   47.46	   190.8
   252	1	 375.786	  264.42	   69.96
   253	1	 381.657	  249.73	  210.94
   254	1	 424.716	  283.63	    58.3
   255	1	 213.337	   23.73	  110.24
   256	1	 219.208	    9.04	  151.58
   257	1	 477.561	  171.76	  145.22
   258	1	 82.2031	   88.14	    84.8
   259	1	 232.909	  249.73	  140.98
   260	1	 426.673	  103.96	   185.5
   261	1	   379.7	   97.18	   43.46
   262	1	 242.695	  183.06	  197.16
   263	1	 232.909	  281.37	  205.64
   264	1	 371.871	  257.64	  178.08
   265	1	 33.2727	   10.17	  197.16
   266	1	 348.385	  137.86	  191.86
   267	1	 362.085	  242.95	  170.66
   268	1	 150.706	   25.99	  117.66
   269	1	 95.9037	  105.09	   40.28
   270	1	 389.486	   87.01	   32.86
   271	1	 305.326	   61.02	   78.44
   272	1	 332.727	  257.64	   69.96
   273	1	 438.417	  108.48	   72.08
   274	1	 475.604	  301.71	   137.8
   275	1	  176.15	   54.24	  112.36
   276	1	 172.235	  176.28	  108.12
   277	1	 21.5294	   23.73	  156.88
   278	1	 463.861	  215.83	  166.42
   279	1	 340.556	    6.78	   61.48
   280	1	 346.427	  134.47	  104.94
   281	1	 219.208	   40.68	    74.2
   282	1	 456.032	  288.15	   48.76
   283	1	 481.475	  162.72	  178.08
   284	1	 268.139	  256.51	    37.1
   285	1	 395.358	   237.3	    31.8
   286	1	 412.973	  195.49	   62.54
   287	1	 305.326	  318.66	   16.96
   288	1	 223.123	  176.28	   59.36
   289	1	  274.01	   94.92	     106
   290	1	 185.936	  132.21	   78.44
   291	1	 60.6737	   59.89	   196.1
   292	1	 371.871	  142.38	  118.72
   293	1	 117.433	   101.7	  203.52
   294	1	 232.909	   10.17	  129.32
   295	1	 262.267	   158.2	   96.46
   296	1	 301.411	   36.16	   96.46
   297	1	 68.5026	   77.97	  192.92
   298	1	 518.663	  328.83	  150.52
   299	1	  520.62	  311.88	  192.92
   300	1	 252.481	  141.25	  113.42
   301	1	 334.684	  290.41	    37.1
   302	1	 385.572	   12.43	  107.06
   303	1	 195.722	  110.74	  187.62
   304	1	 354.256	   32.77	   45.58
   305	1	 358.171	   73.45	   94.34
   306	1	 213.337	  324.31	   75.26
   307	1	 129.176	  144.64	   54.06
   308	1	  309.24	  183.06	     106
   309	1	 254.438	    33.9	  118.72
   310	1	 358.171	   66.67	  160.06
   311	1	 334.684	  175.15	  162.18
   312	1	 348.385	  216.96	    8.48
   313	1	 285.754	   54.24	  205.64
   314	1	 409.058	   77.97	   169.6
   315	1	 553.893	  294.93	   86.92
   316	1	 185.936	  288.15	    84.8
   317	1	 46.9732	       0	  192.92
   318	1	  344.47	   20.34	    31.8
   319	1	 352.299	   124.3	  134.62
   320	1	 416.887	  222.61	    3.18
   321	1	 250.524	   88.14	  195.04
   322	1	 360.128	  115.26	   72.08
   323	1	 393.401	  303.97	  160.06
   324	1	 373.829	   80.23	  181.26
   325	1	 207.465	  250.86	   61.48
   326	1	 285.754	  171.76	  124.02
   327	1	 497.133	  300.58	  208.82
   328	1	 43.0588	   29.38	  187.62
   329	1	 162.449	  181.93	  170.66
   330	1	 238.781	  110.74	    58.3
   331	1	 195.722	  183.06	  163.24
   332	1	 182.021	   73.45	    26.5
   333	1	 227.037	  122.04	  161.12
   334	1	 272.053	  324.31	   51.94
   335	1	 444.288	  267.81	   148.4
   336	1	 185.936	  209.05	   18.02
   337	1	 389.486	   12.43	  189.74
   338	1	 125.262	    9.04	  134.62
   339	1	 317.069	  196.62	  195.04
   340	1	 397.315	  100.57	  170.66
   341	1	 70.4598	    9.04	  166.42
   342	1	 391.443	   169.5	   97.52
   343	1	 512.791	  277.98	  195.04
   344	1	 364.042	   88.14	  186.56
   345	1	 203.551	   203.4	  118.72
   346	1	 311.198	   44.07	   72.08
   347	1	 393.401	   59.89	  113.42
   348	1	 338.599	  125.43	  120.84
   349	1	     366	  270.07	  193.98
   350	1	 213.337	   93.79	  204.58
   351	1	 436.459	  240.69	   33.92
   352	1	  189.85	   39.55	  104.94
   353	1	 332.727	  171.76	    26.5
   354	1	  189.85	   39.55	  189.74
   355	1	 356.214	  171.76	  104.94
   356	1	 232.909	  213.57	   97.52
   357	1	 471.689	  186.45	  161.12
   358	1	 465.818	  277.98	  108.12
   359	1	  119.39	  148.03	   64.66
   360	1	  119.39	   84.75	  146.28
   361	1	 203.551	  239.56	  202.46
   362	1	 381.657	  288.15	    31.8
   363	1	 454.074	  287.02	   24.38
   364	1	  309.24	    9.04	   41.34
   365	1	 469.732	   293.8	    7.42
   366	1	 268.139	  195.49	    9.54
   367	1	 1.95722	    3.39	   99.64
   368	1	 242.695	  273.46	  208.82
   369	1	 162.449	  168.37	   153.7
   370	1	 266.182	  103.96	    37.1
   371	1	 266.182	  149.16	  182.32
   372	1	 436.459	  263.29	  117.66
   373	1	 195.722	   124.3	   13.78
   374	1	  189.85	  105.09	   69.96
   375	1	 207.465	   74.58	   86.92
   376	1	 469.732	  264.42	   23.32
   377	1	 424.716	  220.35	   65.72
   378	1	 227.037	  198.88	  208.82
   379	1	 191.807	  300.58	   94.34
   380	1	  499.09	  195.49	   153.7
   381	1	 137.005	   15.82	  128.26
   382	1	 15.6577	   15.82	   132.5
   383	1	  119.39	    3.39	  195.04
   384	1	 191.807	  287.02	  107.06
   385	1	 387.529	    33.9	    21.2
   386	1	 144.834	   63.28	   85.86
   387	1	 48.9304	   64.41	    10.6
   388	1	 117.433	  144.64	  204.58
   389	1	 336.641	  250.86	    2.12
   390	1	 43.0588	   13.56	   67.84
   391	1	 452.117	  229.39	    9.54
   392	1	 336.641	  171.76	   22.26
   393	1	 336.641	   293.8	  191.86
   394	1	 291.625	  120.91	     5.3
   395	1	 152.663	  122.04	  165.36
   396	1	 465.818	  311.88	    42.4
   397	1	 362.085	  107.35	   34.98
   398	1	 299.454	  317.53	   34.98
   399	1	 334.684	  335.61	   44.52
   400	1	 84.1603	   25.99	   83.74
   401	1	 246.609	  198.88	   87.98
   402	1	 270.096	  291.54	   72.08
   403	1	 495.176	  261.03	    2.12
   404	1	 209.422	  247.47	   91.16
   405	1	 563.679	  332.22	   86.92
   406	1	 166.363	   73.45	  138.86
   407	1	 270.096	   293.8	   71.02
   408	1	 342.513	    5.65	   62.54
   409	1	 228.994	  328.83	  207.76
   410	1	 144.834	  178.54	   92.22
   411	1	 174.192	  132.21	    63.6
   412	1	 463.861	  179.67	  192.92
   413	1	 199.636	   40.68	  163.24
   414	1	 209.422	  249.73	   24.38
   415	1	 262.267	  232.78	   30.74
   416	1	 473.647	  155.94	   89.04
   417	1	 324.898	  144.64	  113.42
   418	1	 481.475	   327.7	  109.18
   419	1	 389.486	  308.49	  195.04
   420	1	 142.877	  220.35	   82.68
   421	1	 322.941	   87.01	   121.9
   422	1	 183.978	  142.38	  122.96
   423	1	 193.765	  294.93	  161.12
   424	1	  344.47	  219.22	  136.74
   425	1	  330.77	   16.95	   82.68
   426	1	 289.668	  198.88	   132.5
   427	1	 348.385	  196.62	      53
   428	1	  260.31	  310.75	    3.18
   429	1	 178.107	  159.33	   169.6
   430	1	 514.748	  335.61	  110.24
   431	1	 211.379	   192.1	   24.38
   432	1	 551.935	  284.76	  207.76
   433	1	 411.016	     226	   121.9
   434	1	 389.486	   91.53	    2.12
   435	1	  27.401	    9.04	   49.82
   436	1	 146.791	  181.93	  181.26
   437	1	 103.733	   53.11	  119.78
   438	1	 338.599	  328.83	   61.48
   439	1	 393.401	  294.93	  108.12
   440	1	 234.866	  122.04	  108.12
   441	1	 264.224	  267.81	   201.4
   442	1	 242.695	  117.52	  136.74
   443	1	     366	  256.51	   22.26
   444	1	 264.224	  233.91	   12.72
   445	1	 129.176	   169.5	  182.32
   446	1	 407.101	  273.46	  151.58
   447	1	 148.749	  212.44	   87.98
   448	1	  330.77	   66.67	  204.58
   449	1	 121.347	   49.72	    3.18
   450	1	 307.283	  114.13	   132.5
   451	1	 571.507	  318.66	    4.24
   452	1	 48.9304	   66.67	  104.94
   453	1	  176.15	   42.94	   206.7
   454	1	 238.781	  108.48	    84.8
   455	1	 234.866	   36.16	  128.26
   456	1	 399.272	   158.2	   83.74
   457	1	 88.0748	  111.87	  142.04
   458	1	 215.294	   47.46	   27.56
   459	1	 50.8877	    6.78	   78.44
   460	1	 195.722	  280.24	  124.02
   461	1	 446.246	  212.44	   56.18
   462	1	 409.058	  213.57	  195.04
   463	1	 291.625	  125.43	   23.32
   464	1	 412.973	   39.55	   92.22
   465	1	 185.936	  148.03	  113.42
   466	1	 328.813	   54.24	    8.48
   467	1	 358.171	  301.71	  209.88
   468	1	   379.7	  137.86	  149.46
   469	1	 121.347	   70.06	  210.94
   470	1	 483.433	  206.79	  175.96
   471	1	 201.593	  118.65	   137.8
   472	1	 475.604	  249.73	  102.82
   473	1	 228.994	  148.03	   18.02
   474	1	 211.379	  332.22	   76.32
   475	1	 264.224	   32.77	   30.74
   476	1	 215.294	   47.46	  184.44
   477	1	 459.946	  154.81	   196.1
   478	1	 371.871	   101.7	   67.84
   479	1	 268.139	  249.73	   49.82
   480	1	 424.716	   71.19	   29.68
   481	1	  414.93	  277.98	   59.36
   482	1	 299.454	   44.07	  152.64
   483	1	 272.053	   46.33	  157.94
   484	1	 76.3315	   59.89	   87.98
   485	1	  154.62	  100.57	   81.62
   486	1	 23.4866	   15.82	  147.34
   487	1	 489.304	  250.86	   148.4
   488	1	 395.358	  164.98	  172.78
   489	1	 266.182	  277.98	   76.32
   490	1	 242.695	   40.68	    95.4
   491	1	 371.871	  284.76	   65.72
   492	1	 195.722	  162.72	    21.2
   493	1	 448.203	  261.03	  154.76
   494	1	 346.427	   66.67	   39.22
   495	1	  260.31	  161.59	   43.46
   496	1	 238.781	  185.32	    68.9
   497	1	 391.443	  205.66	  138.86
   498	1	 438.417	  287.02	  183.38
   499	1	 352.299	  178.54	  119.78
ITEM: TIMESTEP
0
ITEM: NUMBER OF ATOMS
500
ITEM: BOX BOUNDS xy xz yz
-195.722	391.443	195.722
-169.5	169.5	0
-106	106	0
ITEM: ATOMS index type x y z
     0	1	 409.058	   37.29	  146.28
     1	1	 172.235	   29.38	   39.22
     2	1	 266.182	   27.12	  142.04
     3	1	 506.919	  220.35	  103.88
     4	1	  485.39	  196.62	  173.84
     5	1	 35.2299	    2.26	  183.38
     6	1	 146.791	  141.25	   18.02
     7	1	 254.438	  210.18	  152.64
     8	1	 170.278	  227.13	  154.76
     9	1	 381.657	  229.39	  191.86
    10	1	 426.673	   135.6	    21.2
    11	1	 213.337	  148.03	   34.98
    12	1	 195.722	   101.7	  139.92
    13	1	 111.561	   -1.13	   100.7
    14	1	 58.7165	    90.4	   20.14
    15	1	 148.749	    22.6	   18.02
    16	1	 211.379	       0	       0
    17	1	 191.807	   101.7	  175.96
    18	1	 299.454	  195.49	  210.94
    19	1	 405.144	  213.57	   12.72
    20	1	 307.283	  236.17	  183.38
    21	1	 328.813	   88.14	   25.44
    22	1	 454.074	  205.66	   39.22
    23	1	 272.053	  276.85	  187.62
    24	1	 242.695	  325.44	    31.8
    25	1	 320.984	   192.1	    68.9
    26	1	 412.973	  222.61	   64.66
    27	1	 199.636	  196.62	  165.36
    28	1	   379.7	  176.28	     106
    29	1	 182.021	  195.49	   121.9
    30	1	 405.144	   84.75	  135.68
    31	1	 416.887	  308.49	    42.4
    32	1	 137.005	  212.44	   132.5
    33	1	 313.155	  257.64	  139.92
    34	1	 113.519	       0	   25.44
    35	1	 232.909	  206.79	      53
    36	1	 385.572	  324.31	  155.82
    37	1	 129.176	  122.04	   169.6
    38	1	 473.647	  232.78	   164.3
    39	1	 369.914	  227.13	   99.64
    40	1	 148.749	    2.26	  170.66
    41	1	 403.187	   63.28	   153.7
    42	1	 432.545	  114.13	   66.78
    43	1	 553.893	  290.41	  104.94
    44	1	 346.427	   87.01	     5.3
    45	1	 39.1443	    56.5	  210.94
    46	1	 272.053	  195.49	  126.14
    47	1	 103.733	   91.53	   69.96
    48	1	 39.1443	   27.12	   40.28
    49	1	  330.77	  290.41	  140.98
    50	1	  309.24	  185.32	  183.38
    51	1	 168.321	   40.68	   65.72
    52	1	 74.3743	   42.94	  162.18
    53	1	 234.866	  128.82	  122.96
    54	1	 131.134	  111.87	   148.4
    55	1	 203.551	   88.14	  110.24
    56	1	  534.32	  276.85	  113.42
    57	1	 168.321	   237.3	   82.68
    58	1	 463.861	  335.61	   44.52
    59	1	 377.743	   32.77	    58.3
    60	1	 172.235	  196.62	   14.84
    61	1	 409.058	   44.07	  195.04
    62	1	 174.192	  236.17	   77.38
    63	1	 170.278	  172.89	   38.16
    64	1	 405.144	  227.13	  197.16
    65	1	 281.839	   135.6	  186.56
    66	1	 272.053	  256.51	     5.3
    67	1	 457.989	  298.32	   69.96
    68	1	 80.2459	    3.39	  142.04
    69	1	 442.331	  198.88	    9.54
    70	1	 262.267	  266.68	   98.58
    71	1	 156.577	  176.28	    31.8
    72	1	 91.9892	   -1.13	   62.54
    73	1	 385.572	   77.97	  133.56
    74	1	 497.133	  239.56	   98.58
    75	1	 436.459	  193.23	   40.28
    76	1	  295.54	  310.75	  162.18
    77	1	 358.171	  181.93	  145.22
    78	1	 248.567	  127.69	  162.18
    79	1	 236.823	   93.79	  177.02
    80	1	 109.604	  142.38	   148.4
    81	1	 336.641	  178.54	   98.58
    82	1	 362.085	  154.81	    15.9
    83	1	 80.2459	   80.23	   81.62
    84	1	 232.909	  242.95	  126.14
    85	1	 489.304	  219.22	  130.38
    86	1	 399.272	  277.98	   23.32
    87	1	 436.459	  209.05	   51.94
    88	1	 375.786	  189.84	   48.76
    89	1	  225.08	  213.57	      53
    90	1	 232.909	  270.07	   60.42
    91	1	 43.0588	   27.12	  110.24
    92	1	 15.6577	   20.34	  167.48
    93	1	 138.962	   53.11	  147.34
    94	1	 197.679	   77.97	  112.36
    95	1	 340.556	    6.78	  165.36
    96	1	 285.754	   259.9	   66.78
    97	1	  225.08	  256.51	  130.38
    98	1	 203.551	  273.46	    47.7
    99	1	 187.893	   94.92	  135.68
   100	1	 371.871	  244.08	  101.76
   101	1	 174.192	    3.39	    74.2
   102	1	 50.8877	   63.28	   121.9
   103	1	 101.775	  151.42	  160.06
   104	1	 459.946	  236.17	  145.22
   105	1	 338.599	  240.69	  139.92
   106	1	 236.823	  335.61	   65.72
   107	1	 403.187	  311.88	  142.04
   108	1	 389.486	   53.11	  126.14
   109	1	 127.219	   80.23	   45.58
   110	1	 146.791	   53.11	  162.18
   111	1	 268.139	   98.31	  199.28
   112	1	 426.673	  266.68	  183.38
   113	1	 322.941	  118.65	   148.4
   114	1	 252.481	  303.97	  155.82
   115	1	 152.663	   158.2	   75.26
   116	1	 234.866	   54.24	    8.48
   117	1	 493.219	  334.48	    9.54
   118	1	  401.23	  290.41	  202.46
   119	1	 207.465	  314.14	   153.7
   120	1	 199.636	  216.96	    63.6
   121	1	 457.989	  137.86	  179.14
   122	1	 530.406	  301.71	   93.28
   123	1	 371.871	  198.88	  166.42
   124	1	 352.299	  314.14	    7.42
   125	1	 262.267	   293.8	  160.06
   126	1	 461.903	  334.48	  189.74
   127	1	 203.551	  223.74	   16.96
   128	1	 135.048	  148.03	   41.34
   129	1	  274.01	  103.96	     5.3
   130	1	 109.604	   83.62	  170.66
   131	1	 469.732	   237.3	  175.96
   132	1	 369.914	   80.23	  172.78
   133	1	 479.518	  209.05	  107.06
   134	1	 138.962	    3.39	   80.56
   135	1	 479.518	  213.57	  173.84
   136	1	  140.92	   203.4	   93.28
   137	1	 405.144	  161.59	   111.3
   138	1	 446.246	   97.18	  130.38
   139	1	 352.299	  307.36	  145.22
   140	1	  401.23	  303.97	  147.34
   141	1	 553.893	  288.15	  146.28
   142	1	 328.813	  320.92	   100.7
   143	1	 381.657	  249.73	   111.3
   144	1	 471.689	  328.83	   27.56
   145	1	 60.6737	    5.65	   196.1
   146	1	 367.957	   49.72	   94.34
   147	1	 138.962	  132.21	  161.12
   148	1	 448.203	  308.49	   57.24
   149	1	 236.823	  242.95	   32.86
   150	1	 250.524	    33.9	  142.04
   151	1	 391.443	   74.58	    2.12
   152	1	 111.561	  100.57	   62.54
   153	1	 371.871	  230.52	   76.32
   154	1	 491.262	  294.93	   89.04
   155	1	 504.962	  320.92	    7.42
   156	1	 340.556	   169.5	   16.96
   157	1	 185.936	   64.41	   40.28
   158	1	 35.2299	       0	   116.6
   159	1	 285.754	  155.94	    2.12
   160	1	  176.15	  151.42	  168.54
   161	1	 285.754	  210.18	   38.16
   162	1	 150.706	   50.85	  161.12
   163	1	 403.187	  162.72	   59.36
   164	1	 424.716	  297.19	   64.66
   165	1	 201.593	   57.63	     159
   166	1	 178.107	  247.47	   137.8
   167	1	 166.363	  236.17	  147.34
   168	1	 158.535	  141.25	  193.98
   169	1	 473.647	  212.44	   143.1
   170	1	 58.7165	   70.06	     5.3
   171	1	 162.449	  179.67	  150.52
   172	1	 152.663	    2.26	  187.62
   173	1	 213.337	  222.61	    90.1
   174	1	 129.176	  122.04	   99.64
   175	1	 287.711	  227.13	  152.64
   176	1	 362.085	   87.01	    15.9
   177	1	 178.107	  301.71	   38.16
   178	1	 375.786	    33.9	   169.6
   179	1	 467.775	  240.69	  175.96
   180	1	 389.486	  290.41	    90.1
   181	1	 409.058	  168.37	   66.78
   182	1	 70.4598	   88.14	  161.12
   183	1	  189.85	   16.95	    95.4
   184	1	 213.337	  256.51	   11.66
   185	1	 82.2031	   49.72	   22.26
   186	1	  450.16	  223.74	   25.44
   187	1	 373.829	   71.19	  142.04
   188	1	 440.374	  125.43	  144.16
   189	1	 383.615	   13.56	    2.12
   190	1	  119.39	  148.03	  172.78
   191	1	 299.454	  209.05	  151.58
   192	1	 185.936	  233.91	  163.24
   193	1	 121.347	   47.46	  150.52
   194	1	 174.192	  281.37	   14.84
   195	1	  485.39	  291.54	   33.92
   196	1	 129.176	   88.14	   33.92
   197	1	 426.673	   327.7	   64.66
   198	1	 293.583	   327.7	    1.06
   199	1	 205.508	  263.29	   49.82
   200	1	 383.615	  264.42	    8.48
   201	1	 549.978	  297.19	  107.06
   202	1	 183.978	  300.58	    68.9
   203	1	 270.096	   158.2	   81.62
   204	1	 50.8877	   63.28	   64.66
   205	1	 101.775	  149.16	   38.16
   206	1	 133.091	   27.12	  156.88
   207	1	  499.09	  322.05	   99.64
   208	1	 213.337	   57.63	   89.04
   209	1	 375.786	  311.88	   19.08
   210	1	 43.0588	   15.82	   64.66
   211	1	 358.171	  148.03	   121.9
   212	1	 317.069	  122.04	  161.12
   213	1	 227.037	   97.18	  140.98
   214	1	 293.583	    33.9	    4.24
   215	1	 389.486	  206.79	  150.52
   216	1	 272.053	  236.17	   32.86
   217	1	 197.679	  281.37	  175.96
   218	1	 258.353	  311.88	    74.2
   219	1	 297.497	  246.34	   56.18
   220	1	 354.256	  270.07	   87.98
   221	1	 358.171	   50.85	  144.16
   222	1	  330.77	  263.29	  145.22
   223	1	 197.679	   16.95	   97.52
   224	1	 191.807	  185.32	  138.86
   225	1	 373.829	  159.33	  163.24
   226	1	 283.797	  100.57	  145.22
   227	1	 461.903	  232.78	  109.18
   228	1	 248.567	   84.75	  203.52
   229	1	 442.331	  115.26	   67.84
   230	1	 360.128	  216.96	   180.2
   231	1	 264.224	   84.75	  186.56
   232	1	 162.449	  229.39	    15.9
   233	1	 205.508	   44.07	   38.16
   234	1	 135.048	   93.79	   96.46
   235	1	 182.021	  186.45	   46.64
   236	1	 422.759	   81.36	   116.6
   237	1	 381.657	   93.79	    3.18
   238	1	 313.155	  176.28	   25.44
   239	1	 315.112	  263.29	   62.54
   240	1	 270.096	  291.54	  150.52
   241	1	 334.684	  181.93	   22.26
   242	1	 397.315	  328.83	   44.52
   243	1	 88.0748	  118.65	  125.08
   244	1	 354.256	  294.93	   40.28
   245	1	 305.326	    6.78	  118.72
   246	1	 422.759	  307.36	   83.74
   247	1	 332.727	   74.58	  139.92
   248	1	 313.155	   63.28	  151.58
   249	1	 360.128	   13.56	  161.12
   250	1	 407.101	  144.64	    15.9
   251	1	 336.641	   47.46	   190.8
   252	1	 375.786	  264.42	   69.96
   253	1	 381.657	  249.73	  210.94
   254	1	 424.716	  283.63	    58.3
   255	1	 213.337	   23.73	  110.24
   256	1	 219.208	    9.04	  151.58
   257	1	 477.561	  171.76	  145.22
   258	1	 82.2031	   88.14	    84.8
   259	1	 232.909	  249.73	  140.98
   260	1	 426.673	  103.96	   185.5
   261	1	   379.7	   97.18	   43.46
   262	1	 242.695	  183.06	  197.16
   263	1	 232.909	  281.37	  205.64
   264	1	 371.871	  257.64	  178.08
   265	1	 33.2727	   10.17	  197.16
   266	1	 348.385	  137.86	  191.86
   267	1	 362.085	  242.95	  170.66
   268	1	 150.706	   25.99	  117.66
   269	1	 95.9037	  105.09	   40.28
   270	1	 389.486	   87.01	   32.86
   271	1	 305.326	   61.02	   78.44
   272	1	 332.727	  257.64	   69.96
   273	1	 438.417	  108.48	   72.08
   274	1	 475.604	  301.71	   137.8
   275	1	  176.15	   54.24	  112.36
   276	1	 172.235	  176.28	  108.12
   277	1	 21.5294	   23.73	  156.88
   278	1	 463.861	  215.83	  166.42
   279	1	 340.556	    6.78	   61.48
   280	1	 346.427	  134.47	  104.94
   281	1	 219.208	   40.68	    74.2
   282	1	 456.032	  288.15	   48.76
   283	1	 481.475	  162.72	  178.08
   284	1	 268.139	  256.51	    37.1
   285	1	 395.358	   237.3	    31.8
   286	1	 412.973	  195.49	   62.54
   287	1	 305.326	  318.66	   16.96
   288	1	 223.123	  176.28	   59.36
   289	1	  274.01	   94.92	     106
   290	1	 185.936	  132.21	   78.44
   291	1	 60.6737	   59.89	   196.1
   292	1	 371.871	  142.38	  118.72
   293	1	 117.433	   101.7	  203.52
   294	1	 232.909	   10.17	  129.32
   295	1	 262.267	   158.2	   96.46
   296	1	 301.411	   36.16	   96.46
   297	1	 68.5026	   77.97	  192.92
   298	1	 518.663	  328.83	  150.52
   299	1	  520.62	  311.88	  192.92
   300	1	 252.481	  141.25	  113.42
   301	1	 334.684	  290.41	    37.1
   302	1	 385.572	   12.43	  107.06
   303	1	 195.722	  110.74	  187.62
   304	1	 354.256	   32.77	   45.58
   305	1	 358.171	   73.45	   94.34
   306	1	 213.337	  324.31	   75.26
   307	1	 129.176	  144.64	   54.06
   308	1	  309.24	  183.06	     106
   309	1	 254.438	    33.9	  118.72
   310	1	 358.171	   66.67	  160.06
   311	1	 334.684	  175.15	  162.18
   312	1	 348.385	  216.96	    8.48
   313	1	 285.754	   54.24	  205.64
   314	1	 409.058	   77.97	   169.6
   315	1	 553.893	  294.93	   86.92
   316	1	 185.936	  288.15	    84.8
   317	1	 46.9732	       0	  192.92
   318	1	  344.47	   20.34	    31.8
   319	1	 352.299	   124.3	  134.62
   320	1	 416.887	  222.61	    3.18
   321	1	 250.524	   88.14	  195.04
   322	1	 360.128	  115.26	   72.08
   323	1	 393.401	  303.97	  160.06
   324	1	 373.829	   80.23	  181.26